36
Properties=species:S:1:pos:R:3 energy=-2.2204460492503136e-16 pbc="T T T"
C       -1.42201600       5.42936300       1.67595700
C       -2.08402400       5.01531900       0.36629000
C       -3.57133500       5.17529700       0.40081800
O       -1.56474000       5.71084800      -0.71807000
C       -1.73549300       3.57098300       0.14125300
C       -2.67066600       2.56614200       0.11129500
C       -2.28064500       1.23587100      -0.09953500
F       -3.29205700       0.29778400      -0.08662600
C       -0.97386900       0.87231300      -0.28694200
C       -0.03095800       1.88124600      -0.26042700
C       -0.41980600       3.20605300      -0.04681000
C        1.26086400       1.29487900      -0.54497300
O        2.35124500       1.92722400      -0.59037400
N        1.09737600      -0.11792600      -0.76517400
C        2.08225400      -0.96635600      -1.34110400
C        3.24665500      -1.20235900      -0.51590500
C        4.40768000      -1.57722400      -1.23672900
C        5.58821000      -1.79434500      -0.52806000
C        5.63582000      -1.64603300       0.82341100
Cl       7.11864000      -1.90047200       1.73178800
C        4.46013300      -1.27284000       1.46816300
N        3.32609100      -1.06658800       0.79356900
C       -0.26434000      -0.45499000      -0.44694100
O       -0.81380000      -1.11073300      -1.53172100
C       -2.12645800      -1.45776200      -1.45218500
C       -2.50561800      -2.15668100      -2.73812900
O       -1.78308100      -3.30864800      -3.02484300
C       -3.72160000      -1.78672400      -3.50390800
C       -2.44453000      -1.14735000      -3.93567800
C       -0.46818500      -1.22438800       0.80743200
C       -1.77419000      -1.67355400       1.00540400
C       -2.16396500      -2.36953400       2.09800100
C       -1.22842400      -2.66102500       3.08174800
Cl      -1.73663500      -3.56074600       4.49701000
C        0.06698600      -2.21999700       2.89112600
C        0.43448200      -1.50704800       1.76087100
41
Properties=species:S:1:pos:R:3 energy=-5.885528377302878 pbc="T T T"
H       -1.55031600      -2.87715700      -1.76367900
C       -2.51010800      -2.40498700      -2.05434000
H       -2.84768000      -2.94547100      -2.96304800
O       -3.49695000      -2.57998300      -1.07965500
C       -2.32968600      -0.91822800      -2.36260800
C       -1.92153600      -0.02311000      -1.18399500
H       -2.73236800      -0.09001100      -0.45695100
H       -1.84507600       0.98970400      -1.69721100
O       -0.73348400      -0.45413600      -0.71017100
C       -0.21647500       0.04784600       0.42940400
C       -1.13362100      -0.26660100       1.60514400
C       -1.18057900      -1.53713500       2.09539900
C       -2.01382100      -1.87594300       3.17035200
C       -2.80628700      -0.92838800       3.75658400
Cl      -3.83318400      -1.39472800       5.08773900
C       -2.75447800       0.35740900       3.25530000
C       -1.93058700       0.67722600       2.19892500
C        0.09775900       1.50734700       0.49472800
C       -0.70141900       2.62557400       0.42210100
F       -2.07755800       2.55532100       0.29196900
C       -0.10481500       3.86909100       0.51107500
C        1.24117900       4.08776200       0.67279700
C        1.84651600       5.45115500       0.79120400
C        1.39338700       6.30686100      -0.36696400
C        1.55115800       6.10196900       2.10035900
O        3.25106400       5.34639000       0.67015600
C        2.03634600       2.97169800       0.74552100
C        1.44707800       1.70375600       0.65655100
C        2.08104400       0.39481300       0.78358200
O        3.28496900       0.14532300       0.94293700
N        1.03686100      -0.59720300       0.69139300
C        1.32247700      -2.03160800       0.91728000
C        2.10925700      -2.59204300      -0.19215800
C        2.32139100      -1.91960300      -1.35774900
C        3.14169600      -2.44446500      -2.37876200
C        3.73801800      -3.67926300      -2.16739800
Cl       4.80039300      -4.41481500      -3.36277800
C        3.49383700      -4.31646900      -0.98248500
N        2.70266900      -3.77980000      -0.03229700
C       -1.36819700      -0.71429000      -3.55089800
C       -2.80887500      -0.35381000      -3.62735300
43
Properties=species:S:1:pos:R:3 energy=-2.4910393124507957 pbc="T T T"
C        2.11960400      -3.43536700       0.73281300
C        2.76120400      -2.33290800       1.55048400
C        2.08069200      -1.00469900       1.38725200
N        1.82384000      -0.75775900      -0.01558800
C        1.12358400       0.44782500      -0.25910000
C       -0.24373300       0.61833800       0.13814100
O       -0.84206600       1.73668100      -0.10155700
N       -1.03324100      -0.35903500       0.79567900
C       -0.65725300      -1.70693000       1.15510400
C       -1.84989300      -2.36786600       1.75808800
C       -2.26789100      -3.60186700       0.98374900
C       -1.48780400      -2.82206900       3.15581000
C       -2.89492000      -1.34205000       1.80069600
C       -4.19966200      -1.40407200       2.29974500
C       -4.97687500      -0.27016900       2.20569100
O       -6.18006500      -0.23965000       2.63567500
N       -4.46471900       0.83792300       1.64798100
C       -5.33253600       2.02447900       1.56726000
C       -6.09072700       2.00364700       0.27858200
C       -7.33241500       1.38889100       0.21474700
C       -8.04774200       1.35507600      -0.96932900
C       -7.55393200       1.92820600      -2.12311000
F       -8.26453300       1.88648300      -3.28323900
C       -6.32100200       2.53338700      -2.04094700
C       -5.58288400       2.57973000      -0.85772100
C       -3.21319600       0.89775200       1.16928400
C       -2.39260300      -0.20243900       1.23590800
C        3.11300400      -0.72204800      -0.76412700
C        3.87678800       0.44251300      -0.25794900
N        5.12975500       0.72380300      -0.79213500
C        5.87518800       1.81741500      -0.29764200
C        5.05981700       2.78167900       0.53737900
C        6.63974600       2.55054700      -1.40857500
O        6.42747200       1.80847900      -2.58051600
C        6.82882500       0.48150300      -2.42414100
C        5.89527200      -0.25221600      -1.44133100
C        6.83494400      -0.88741900      -0.41122500
C        3.79154100      -2.04025200      -0.48926400
N        4.10239900      -2.16737000       0.93938300
H        2.85088400      -2.64392200       2.61194600
H        2.83215800      -0.69733800      -1.81901500
H        6.68131300       1.41950500       0.37786000
H        5.38166000      -1.00641700      -2.03350100
38
Properties=species:S:1:pos:R:3 energy=-1.7455929851574288 pbc="T T T"
C       -2.83205500       5.16544100       1.99338600
C       -3.43425600       3.79239000       2.24890300
C       -3.55459400       3.47340900       3.71921600
O       -4.76276300       3.86239500       1.77003600
C       -2.66910500       2.76095100       1.50644200
C       -3.06156000       1.44605200       1.67017300
C       -2.44325400       0.39903700       1.04236800
F       -2.89355000      -0.84071200       1.30420200
C       -1.37261500       0.69037300       0.20434600
C       -0.95392800       1.97605900       0.01788100
C       -1.60769900       3.03252600       0.67560700
C        0.17492700       2.01463500      -0.90963200
O        0.77438400       3.09151400      -1.26539400
N        0.43478900       0.70857000      -1.29434200
C        1.39150900       0.26816200      -2.25881800
C        2.75836900       0.04659300      -1.84303600
C        3.17841500      -1.14923800      -1.30358800
C        4.52678800      -1.31783900      -0.94431600
C        5.42785600      -0.29206100      -1.12779400
C        6.79655900      -0.45832900      -0.77135400
N        7.91083300      -0.57073900      -0.48208300
C        4.97938600       0.88870700      -1.66700200
N        3.67700600       1.02104000      -2.00337200
C       -0.49252900      -0.19960400      -0.59096100
O       -1.03078800      -1.06489100      -1.39172700
C       -1.73040500      -2.04172000      -1.58798300
C       -3.11811300      -2.41318700      -1.37597100
C       -4.23389300      -1.58288500      -2.05363500
O       -5.46417800      -2.15362700      -1.68339500
C       -3.41532800      -3.93118500      -1.68706800
C       -3.56544100      -3.39924100      -0.33482200
C        0.43483200      -0.93176600       0.37486900
C        0.44956300      -2.30093400       0.30045300
C        1.28127300      -3.03479500       1.15739800
C        2.06344400      -2.38355900       2.05695400
Cl       3.12498700      -3.30244600       3.14216100
C        2.03859100      -0.99653600       2.12339900
C        1.21254200      -0.27256000       1.26850000
42
Properties=species:S:1:pos:R:3 energy=-4.316969959892171 pbc="T T T"
C       -3.13668400       1.47586500       1.97864200
C       -2.67383700       1.41687100       0.53802400
C       -3.68166900       0.73021300      -0.31262800
O       -3.29534100      -0.27181900      -0.97591200
N       -5.02433500       1.14693500      -0.40471500
C       -5.93324700       0.41163800      -1.26258200
C       -6.45338900       1.30828100      -2.39114100
O       -7.13114300       2.39956300      -1.83829500
C       -7.10791400      -0.11313800      -0.51644500
C       -6.91095400      -0.72696000       0.70742800
C       -7.95425500      -1.23457000       1.44988200
F       -7.75968600      -1.84335900       2.66355000
C       -9.23946400      -1.11699300       0.93657600
C       -9.47148500      -0.50932100      -0.28331500
F      -10.74087600      -0.39088000      -0.79477900
C       -8.39619200      -0.01562200      -0.99188100
N       -1.37942000       0.77363300       0.43789000
C       -1.07138000      -0.57985000       0.80927300
C        0.38174900      -0.72666400       0.50756400
C        1.24578900      -1.79944700       0.65267200
C        2.57444200      -1.69347000       0.29770700
C        3.10685900      -0.52830400      -0.21422200
C        4.51926000      -0.43716300      -0.58442300
N        5.49807400      -0.91312200       0.20766800
C        6.79587300      -0.82847600      -0.13421100
N        7.82877100      -1.34522200       0.72990900
C        9.20241400      -1.21903400       0.29686300
C        9.57120100       0.23567200       0.10275100
C        9.53318500       0.99156200       1.40562500
O        9.70814700       0.14001400       2.47267500
C       10.72005200      -0.77295100       2.14475200
C       10.13283600      -1.86458200       1.27324900
N        7.09726900      -0.24695100      -1.30647400
C        6.18529200       0.25440400      -2.15709200
C        4.84241600       0.15768100      -1.78556600
Cl       3.56558500       0.76724300      -2.79681200
C        2.24923900       0.54194400      -0.36004400
C        0.90264600       0.44204400      -0.00275900
C       -0.20176000       1.39249600      -0.04962800
O       -0.07228400       2.57089800      -0.46884200
H       -2.62325000       2.46411600       0.18101800
H       -5.40253200      -0.44317800      -1.76578300
26
Properties=species:S:1:pos:R:3 energy=-4.316969959892171 pbc="T T T"
C       -3.03017100      -0.00432700       3.87505600
O       -2.65427500       0.11816200       2.52217300
C       -3.51891100       0.03502500       1.45313200
C       -4.88374000      -0.18237600       1.58034900
C       -5.72207000      -0.25982200       0.48078600
N       -7.12880300      -0.48509100       0.64461400
C       -5.15084400      -0.11235300      -0.76444900
Cl      -6.12281200      -0.19361800      -2.21595100
C       -3.79542200       0.10385800      -0.89887700
C       -2.95837000       0.18179600       0.19061800
C       -1.51017600       0.41532600       0.04037600
O       -1.08107300       0.53646200      -1.13397200
N       -0.66361900       0.49575300       1.18459100
C        0.74066500       0.72730900       0.95862000
C        1.65917400      -0.31682200       1.43420900
C        2.41043800      -1.10693600       0.43939900
N        2.17068200      -0.76144500      -0.92338100
C        3.27479900      -1.28244800      -1.71631900
C        4.57917800      -0.72787000      -1.30440800
C        5.04900200       0.41398700      -1.90040900
C        6.26251300       0.98560900      -1.56126400
C        7.04589100       0.38679000      -0.57748300
C        6.59169100      -0.77341700       0.04314500
C        5.37716000      -1.31681900      -0.31908200
C        2.09273500       0.64889300      -1.14710800
C        0.96635700       1.30389200      -0.38436600
44
Properties=species:S:1:pos:R:3 energy=-2.1769148262821076 pbc="T T T"
C        2.99331200      -3.95837900       0.23618100
C        1.66391400      -3.36909500       0.56633100
C        0.98985500      -2.70504300      -0.63529500
N        1.29816600      -1.29357200      -0.55154600
C        0.79741400      -0.48535400      -1.58915500
C       -0.66163600      -0.34064700      -1.52924500
O       -1.18961700       0.35880200      -2.46988400
N       -1.53978100      -0.87618100      -0.56338000
C       -1.26084000      -1.64908500       0.63817300
C       -2.48603800      -2.55070000       0.73025500
C       -2.73472400      -2.80262100       2.20461200
C       -2.30742100      -3.83898900      -0.03010800
C       -3.56756000      -1.69574200       0.15429100
N       -4.89559900      -1.74310900       0.26078700
N       -5.69388300      -0.88466500      -0.32956400
C       -5.18818600       0.10883400      -1.09003600
C       -6.05573800       1.09618500      -1.77460500
C       -6.36093700       2.28070900      -0.92513200
C       -5.74762100       3.49692100      -1.12754200
C       -6.04767000       4.57693800      -0.33061400
C       -6.96266200       4.50884300       0.69911900
F       -7.25016000       5.58711300       1.48038200
C       -7.57209700       3.28572400       0.89429000
C       -7.28198300       2.19585400       0.10465200
F       -7.89976000       0.99315100       0.31779600
C       -3.81878500       0.19585400      -1.22819600
C       -2.96964200      -0.71658700      -0.60087700
C        2.66775700      -1.09245500      -0.18433800
C        3.06736400       0.33143200      -0.50128200
N        4.44824100       0.59216100      -0.14901100
C        4.85549500       1.08094500       1.14836400
C        6.34109800       1.19873700       1.06966300
C        7.29994600       1.60023300       1.96678000
C        8.62848300       1.61674500       1.63459100
C        9.06123200       1.23066800       0.38438500
F       10.38074200       1.25740300       0.08456400
C        8.10513900       0.82320400      -0.53109700
C        6.77293900       0.80896200      -0.19140800
C        5.59209000       0.43398700      -0.94178800
O        5.61776000       0.02875200      -2.12994800
C        2.81116000      -1.41562600       1.28642100
N        1.79781800      -2.38865500       1.62642500
H        0.92691000      -4.13461200       0.92449400
H        3.37550500      -1.74704000      -0.76479800
35
Properties=species:S:1:pos:R:3 energy=-3.4174471507174338 pbc="T T T"
C       -4.35502400       0.32410800       2.56350400
C       -3.01272300       0.36727300       1.83520900
C       -2.18953100       1.44712500       2.52509600
O       -2.44585200      -0.87516600       1.95111800
C       -2.52705500      -1.52160000       0.74875800
C       -1.18183600      -2.13087900       0.34129200
C       -0.41118500      -0.89335500       0.17498900
C        0.90729600      -0.97831000      -0.49890300
C        1.73440300      -2.09191900      -0.06660500
C        3.20563400      -1.91403000      -0.02510200
C        3.66590900      -0.52598500      -0.11141200
C        4.77713800      -0.17379500       0.50873700
C        5.27382500       1.21617400       0.44648800
O        6.34590900       1.53794700       1.04954600
C        4.49638900       2.16655000      -0.31672400
C        3.40813600       1.80637800      -0.92029200
C        2.87419300       0.45795800      -0.89504600
C        2.74399100      -0.05788800      -2.33455600
C        1.49586800       0.42006700      -0.27564100
F        1.62701600       0.55227500       1.09863100
C        0.62870800       1.50370800      -0.77756600
O        0.97533400       1.82466200      -2.11160300
C       -0.83100900       1.31166700      -0.68143100
C       -1.30563600      -0.09238700      -0.78605000
C       -1.16835000      -0.66996200      -2.18272900
C       -2.64790400      -0.37702300      -0.24075000
C       -3.56801800      -0.83727200      -1.31642100
O       -3.17595100      -1.74521100      -2.03043600
C       -4.90339700      -0.27494300      -1.57115300
O       -5.17737000       0.74526200      -0.66259100
O       -3.19270500       0.65555700       0.50818600
H       -3.34372500      -2.24615300       0.65855800
H       -0.37038900      -0.33533200       1.12215100
H        0.75960000      -1.03827000      -1.61748600
H        0.88830800       2.44277200      -0.20177100
32
Properties=species:S:1:pos:R:3 energy=-4.316969959892171 pbc="T T T"
O        3.54052600       0.91790300       3.22966600
C        4.22236500       0.35530300       2.31942200
N        5.51335000      -0.00899900       2.39596200
C        5.85114400      -0.57509200       1.20702500
C        7.01523900      -1.12293200       0.71275800
C        7.10971900      -1.64739600      -0.56002600
C        5.95070800      -1.58694700      -1.31341500
C        4.77385400      -1.04576200      -0.84624200
C        4.73549000      -0.53595500       0.43289500
N        3.70470400       0.04579600       1.11876100
C        2.34475500       0.27040200       0.62939000
C        2.32213700       1.61912300      -0.01798400
C        0.99492800       2.00938800      -0.57688100
N        0.60201700       1.02548600      -1.59733600
C       -0.68709100       1.39889700      -2.14453500
C       -1.59517400       1.61152600      -0.93362600
C       -1.78293300       0.30446800      -0.26584700
N       -3.07712500      -0.27458100      -0.63210700
C       -3.32226300      -1.30890600      -1.45015800
O       -2.41681000      -1.95717600      -2.04683100
N       -4.65521500      -1.48023000      -1.48321400
C       -5.25385300      -0.56796600      -0.69710800
C       -6.56079300      -0.26891200      -0.35136500
C       -6.89906100       0.75335800       0.50317300
Cl      -8.58685100       1.09372000       0.91255400
C       -5.89219100       1.52119300       1.04506800
C       -4.57728600       1.23892700       0.71228700
C       -4.24264900       0.20278900      -0.15319100
C       -0.70002600      -0.67320700      -0.37835400
C        0.57929100      -0.25438900      -0.94949100
H        6.15468100       0.11215300       3.20986200
H       -5.16558400      -2.20687100      -2.03111200
53
Properties=species:S:1:pos:R:3 energy=-3.2184576799749056 pbc="T T T"
O       11.43986100      -3.66740800       2.17657100
C       11.27791500      -2.48519300       1.84372600
C       11.18093800      -1.36541400       2.83476700
C       10.04948600      -0.41817200       2.50333400
C       10.13175300       0.12536100       1.11766500
N        8.83414200       0.56579400       0.62918600
C        8.42415900       1.92541500       0.50315500
O        9.10375300       2.96365600       0.79294400
C        7.06887200       1.94782800      -0.02162200
C        6.18704400       2.97850600      -0.34364600
C        4.95361800       2.65235400      -0.83487000
C        4.55183100       1.36804700      -1.02146700
C        5.40916600       0.32101300      -0.70876600
N        5.06824200      -1.04560200      -0.85560400
C        3.78805900      -1.41509700      -1.42331200
C        3.61919700      -2.90834700      -1.40947000
O        2.45185700      -3.34641200      -1.93248900
C        1.34110200      -3.08127000      -1.58069300
C        0.10286500      -2.78591900      -1.18785000
O       -0.72786100      -2.18070000      -2.18363800
C       -0.08016900      -1.00323700      -2.50074300
C       -0.06069700       0.02003700      -1.42474100
N       -1.27940400       0.53772400      -0.98090700
C       -2.40388100      -0.04906600      -0.42141600
O       -2.41718200      -1.28371600      -0.23846300
C       -3.59482100       0.76454600      -0.03892400
C       -3.47943400       2.08230800       0.33492300
C       -4.59034600       2.84830500       0.66791600
C       -5.83620200       2.30204000       0.62963500
C       -6.00228900       0.97600100       0.25858900
C       -4.86629600       0.23466700      -0.06877300
N       -7.22723800       0.38777900       0.19977900
C       -8.35153500       1.05739100       0.49847000
N       -9.64081600       0.43695200       0.43184300
C       -9.69672300      -0.92057100       0.03300600
C       -8.56742500      -1.64256400      -0.27534000
C       -8.60199400      -2.96201300      -0.66948400
C       -9.82230600      -3.58495800      -0.75821600
C      -10.97310500      -2.90909600      -0.46208100
Cl     -12.56249800      -3.68565800      -0.56728100
C      -10.89814100      -1.57749400      -0.06772500
C       -8.20220700       2.37735600       0.87017200
C       -9.33408100       3.09292700       1.18298300
C       -9.14886700       4.41575000       1.55114100
N       -7.95864800       5.00005000       1.61202400
C       -6.80689100       4.32857600       1.30995500
C       -6.98405100       3.00833200       0.94166400
C        6.64712000       0.65134400      -0.21659300
C        7.74687800      -0.23612300       0.18890800
O        7.77648200      -1.48119400       0.17114600
C       10.78073100      -0.80661100       0.16434100
O       11.00503800      -0.39402400      -1.02238400
N       11.17499800      -2.13420100       0.47243700
32
Properties=species:S:1:pos:R:3 energy=-4.316969959892171 pbc="T T T"
C       -4.86893400      -0.72154800       2.88804400
O       -4.25495000      -0.37332800       1.66172800
C       -5.02853600       0.31551800       0.73498200
C       -6.34596000       0.65424400       0.98379500
C       -7.11493000       1.33703500       0.06641500
N       -8.47277800       1.68733800       0.32119700
C       -6.50509300       1.67151200      -1.12387700
Cl      -7.42206300       2.54786600      -2.35145500
C       -5.18283800       1.33403800      -1.37947100
C       -4.41927800       0.65120800      -0.45833400
C       -3.03632700       0.28674700      -0.72829000
O       -2.46329100       0.58663100      -1.80673400
N       -2.28843300      -0.41895400       0.21536900
C       -0.95675500      -0.86973200       0.16262500
C       -0.43720700      -1.16386800      -1.17865400
C        0.59773000      -0.30490100      -1.77046400
N        1.57631300       0.00928900      -0.70813700
C        1.79021900      -1.29750300      -0.05726300
C        2.53823700      -2.14598600      -1.08607200
C        3.84862100      -1.37150800      -1.32337400
O        4.48623200      -1.29789700      -0.06767700
C        5.70844500      -0.64990500       0.01370800
C        6.38247200      -0.54873000       1.23845500
C        7.59781900       0.09395800       1.32585000
C        8.19431600       0.65436000       0.23788800
F        9.40448900       1.29367200       0.32740900
C        7.55663600       0.57415200      -0.99133100
C        6.32527200      -0.07782500      -1.07482200
C        0.86073500       0.87038700       0.24263400
C       -0.06728500      -0.02500000       0.98390100
O        0.59374600      -0.71158700       2.00332200
C        1.40337700       0.20562900       2.69863100
41
Properties=species:S:1:pos:R:3 energy=-4.29630909036197 pbc="T T T"
C        9.54838900       1.17493500      -4.81179600
C        8.12363000       1.09456300      -4.39096700
C        7.19695800       0.79449900      -5.35982100
C        5.86917000       0.71145100      -5.00776300
C        5.44956700       0.92085400      -3.71436500
C        6.38038100       1.22161500      -2.74448700
C        5.99646700       1.45911900      -1.32710100
C        7.15204300       1.92849900      -0.50615600
O        6.81891800       1.96849800       0.82614500
N        4.83438900       2.31428900      -1.20695400
C        3.59920300       1.91581900      -0.68588900
O        3.44899700       0.73641400      -0.28224100
C        2.44304000       2.83581900      -0.58723400
C        2.09786600       3.44936200      -1.92122600
N        1.27936700       2.16709300      -0.01061800
C        0.69203800       2.55267700       1.22892000
C       -0.43417100       1.63457200       1.45829700
C       -1.35998900       1.54700400       2.52343400
C       -2.31974000       0.57156300       2.45936500
C       -2.42797400      -0.32770900       1.40993600
C       -3.47516600      -1.32928900       1.42368100
N       -4.74115300      -1.03836600       1.75168900
C       -5.71176600      -1.97524400       1.76172800
N       -7.02922500      -1.58897800       2.12076500
C       -8.10030900      -2.54694200       2.14711700
C       -9.41039500      -1.94772500       2.55049900
C      -10.43149700      -3.00958900       2.87298200
O       -9.92120000      -3.85285600       3.85714700
C       -8.89717000      -4.62299300       3.29585500
C       -7.71520600      -3.77083900       2.91216100
N       -5.46517800      -3.25112900       1.44403700
C       -4.21766400      -3.60270400       1.10731000
C       -3.20467700      -2.63625500       1.09447900
Cl      -1.56168500      -3.05027400       0.66128500
C       -1.50895500      -0.21262000       0.38995100
C       -0.50894300       0.76431200       0.40478000
C        0.55944900       1.08230700      -0.53015900
O        0.82586900       0.51391400      -1.61871100
C        7.70732900       1.30425100      -3.09812400
H        5.68136900       0.45444200      -0.92226700
H        2.73762500       3.64564200       0.10030000
36
Properties=species:S:1:pos:R:3 energy=-3.5061855931136376 pbc="T T T"
C       -5.43271500       2.63127200      -1.28629600
C       -5.62106900       1.49381000      -2.28406100
C       -4.98809000       0.20717400      -1.76553700
C       -3.49617000       0.50027900      -1.57059000
O       -3.39584500       1.51655800      -0.66472200
C       -2.65365300       1.09811400       0.40585000
C       -1.31030900       1.79474900       0.38341100
C       -0.43274400       0.79455600      -0.32615600
C        1.01168400       0.91086700       0.02075700
C        1.66769400       2.12727600      -0.60307500
C        3.10660800       2.25576900      -0.23159500
C        3.84232000       0.95444400      -0.26016600
C        5.02461500       0.87414600      -0.81542200
C        5.68330400      -0.43405800      -0.80463100
O        6.82913400      -0.49643500      -1.34668800
C        5.04227500      -1.58714600      -0.20035800
C        3.86299300      -1.45736000       0.34082900
C        3.14869700      -0.19383800       0.36825800
C        2.85598200       0.25996900       1.81007300
C        1.79969500      -0.28664500      -0.36820700
C        1.18793300      -1.59706200      -0.03208700
O        1.36458200      -1.93931100       1.30724900
C       -0.30132400      -1.63267900      -0.38896700
C       -0.93778000      -0.50060900       0.32447700
C       -0.51255200      -0.50781000       1.75671000
C       -2.40227500      -0.36740900       0.17692900
C       -3.07626100      -1.22551100       1.18679000
O       -3.93595000      -2.03801800       0.91150500
C       -2.66338900      -1.06769300       2.60727000
O       -3.35815800      -1.91746400       3.45495000
O       -2.88019700      -0.61840900      -1.08713200
H       -3.21942900       1.30529200       1.33577900
H       -0.62975400       0.77909200      -1.41138900
H        1.07660200       1.04421300       1.13390900
H        2.05962000      -0.28371300      -1.44903100
H        1.68392800      -2.39640800      -0.62863700
26
Properties=species:S:1:pos:R:3 energy=-2.5641152418881754 pbc="T T T"
C        5.61806100      -0.56659400       1.29725700
C        4.61876300       0.39908200       0.68976600
C        5.33143200       1.45617700      -0.13378900
N        3.69634300      -0.28302800      -0.17137500
C        2.89676200      -1.24978100       0.50508200
C        1.89946300      -0.60990100       1.41577300
C        1.03303600       0.34826800       0.66809400
N       -0.19833400      -0.26932200       0.20023400
C       -1.27231500       0.59714200      -0.14736300
O       -2.35976700       0.17956400      -0.60772700
C       -1.10027300       2.06398900       0.04196000
C       -2.36678700       2.77741100      -0.28424700
C       -3.33178500       2.94958600       0.67382500
C       -4.51358700       3.60179200       0.41027700
C       -4.69960500       4.08828000      -0.86995700
C       -3.75708100       3.93211000      -1.83406300
C       -2.56005400       3.25980400      -1.54149600
C       -0.34874400      -1.67297500       0.09798200
C       -1.34002500      -2.30703600       0.79435300
C       -1.46548000      -3.67071300       0.70912000
C       -0.59905800      -4.43757000      -0.07959100
Cl      -0.72783900      -6.16436000      -0.21709900
C        0.37295000      -3.75801700      -0.75744300
C        0.50493900      -2.39921500      -0.67593600
C        1.74319400       1.16683600      -0.34727900
C        2.92579200       0.56847000      -0.98960400
32
Properties=species:S:1:pos:R:3 energy=-1.5571860032320717 pbc="T T T"
C        6.92320900       1.67712700      -0.61843200
C        7.23842000       0.36590400       0.18266900
O        6.14307300      -0.54227000      -0.13186900
C        4.86187800      -0.06165500       0.21091300
N        4.78678900       1.10989800       0.85681900
C        3.56720800       1.63027700       1.19341400
N        3.43337400       2.83581900       1.89658200
N        2.46225600       0.95680800       0.86200600
C        2.49556800      -0.20237200       0.23364300
C        3.73346000      -0.75086900      -0.10115800