22
Properties=species:S:1:pos:R:3 energy=0.0 pbc="T T T"
C       -5.68836400      -1.20123200       0.60363200
C       -5.89406200       0.11024800       0.22602700
C       -4.80194100       0.92840200      -0.05304800
C       -3.50578500       0.46676700       0.03623500
N       -2.38204600       1.30772300      -0.25068100
C       -1.06995600       0.74717600      -0.13304800
N       -0.87983400      -0.53265800       0.23570200
C        0.34357000      -1.07927500       0.35237600
C        1.48176000      -0.35374000       0.09879300
C        2.82325800      -0.89481200       0.20955100
C        3.21891000      -1.66809700       1.28536700
N        4.46548500      -2.16288800       1.37462100
C        5.33572800      -1.89104700       0.38771400
N        5.03854600      -1.14928800      -0.69389500
C        3.78967900      -0.65874400      -0.77454200
C        1.32792000       0.96123400      -0.28156900
C        0.05986700       1.49228600      -0.39206600
O        0.21979700       2.81433100      -0.78568000
C        1.51293800       3.27537400      -0.42908800
C        2.33873400       2.02106400      -0.62888700
C       -3.33547100      -0.84623900       0.41554900
C       -4.39873400      -1.68658400       0.70011000
24
Properties=species:S:1:pos:R:3 energy=-0.07479257545286395 pbc="T T T"
C        7.58257100      -0.63442900       0.34073800
O        6.34655100      -0.03235800       0.58530000
C        5.16209700      -0.55127500       0.10937800
C        5.17024600      -1.70348900      -0.63645900
C        4.00820600      -2.24579100      -1.12489800
C        2.81442900      -1.60744200      -0.85184600
C        2.76158300      -0.45375100      -0.11031700
C        1.46050300       0.15548800       0.13130700
C        1.27891100       1.30619300       0.85561700
N       -0.03133900       1.56604700       0.86988900
C       -0.67420000       0.61599200       0.17844900
N        0.25447700      -0.26119600      -0.28063600
N       -2.08600000       0.69742900       0.06256000
C       -2.84890800      -0.49750300      -0.07148300
O       -2.27050800      -1.62831700      -0.08859300
C       -4.29249700      -0.49473500      -0.19314900
C       -5.12285300       0.60276700      -0.19923800
C       -6.43161300       0.14670700      -0.33630100
O       -6.35818900      -1.15683400      -0.40612000
C       -5.11649300      -1.58252300      -0.32613500
C       -2.80858200       1.96587400       0.07100500
C       -1.89062800       3.09217100       0.50536200
C       -0.84605000       2.63110200       1.46813300
C        3.93828500       0.06987300       0.36774000
24
Properties=species:S:1:pos:R:3 energy=-0.8140489534289836 pbc="T T T"
N        6.86979800      -0.82728800       0.32676700
C        5.82758400      -0.29466800       0.33272200
C        4.55703200       0.37911500       0.35023300
C        4.34132300       1.44617700       1.18706900
C        3.13960600       2.11012500       1.22696800
C        2.12183100       1.67368100       0.38655400
C        2.29902900       0.60561000      -0.46851000
C        1.17138600       0.19082700      -1.33941500
N        0.32510500      -0.79156600      -0.71966000
C       -0.73397400      -1.13228600      -1.63027900
C       -1.86633700      -1.62731700      -0.78794700
C       -1.75674200      -3.10703600      -0.48190500
O       -2.81865300      -3.52371400       0.29595300
C       -1.71994200      -0.81965300       0.48350800
C       -2.57912800       0.38228300       0.38820900
C       -3.50091000       0.65239300       1.37092900
C       -4.31573900       1.77321800       1.30081300
C       -4.14985500       2.58605700       0.20708800
C       -3.23665700       2.31843800      -0.76645100
N       -2.47232500       1.21324100      -0.64339000
C       -0.27705100      -0.35619400       0.50283900
C        3.52994500      -0.03758100      -0.47709300
H       -2.83783500      -1.40366100      -1.26525900
H       -1.91749000      -1.41020100       1.38463500
18
Properties=species:S:1:pos:R:3 energy=-0.9493029993649524 pbc="T T T"
N        4.37049700       2.09393700       0.23701200
C        3.69853600       1.13616700       0.11949600
C        2.90400700      -0.03192000      -0.03572300
C        3.39398700      -1.25899800       0.35386600
C        2.64502200      -2.41997800       0.21658500
C        1.39427600      -2.32201800      -0.32001900
C        0.84312100      -1.10353400      -0.73383400
C       -0.50836700      -1.10509800      -1.29763300
N       -1.54865200      -0.93125700      -0.33652900
C       -2.84661700      -0.94201100      -0.92305500
C       -3.96117300      -0.51259900      -0.04202400
O       -3.68872900       0.57159500       0.76435300
C       -3.10853400       1.62788200       0.12275300
C       -1.61820500       1.41727200       0.07383400
O       -1.14557300       1.55011600      -1.23022100
C       -1.32080100       0.05584400       0.65476400
C        1.63307900       0.00341400      -0.57129700
H       -1.13587600       2.17118600       0.75563700
22
Properties=species:S:1:pos:R:3 energy=0.0 pbc="T T T"
C       -1.46162100       0.63595200      -1.82136100
N       -1.92315400       1.51527900      -0.76007400
C       -3.17530800       2.14483100      -1.12793600
C       -2.16008300       0.70504100       0.43420400
C       -0.87516800       0.06816500       0.89523200
N       -0.72567600      -1.03822900      -0.04740300
C        0.45275200      -1.48501900      -0.68984400
O        0.36937200      -2.46441800      -1.47525900
C        1.75428700      -0.82954600      -0.45572200
C        1.80974400       0.22944400       0.40785100
C        3.01439900       0.84720600       0.63243600
C        4.18000600       0.41380300      -0.00439500
C        5.44905600       1.04696700       0.21706200
N        6.48775900       1.56206000       0.37889000
C        4.08393300      -0.65518300      -0.86665000
C        2.88449300      -1.27694300      -1.09534200
C       -2.05015800      -1.59909800      -0.19765700
C       -3.01696400      -0.47394900       0.06928500
C       -4.05125100      -0.80752000       1.11278000
O       -4.86466300       0.33705100       1.23888000
H       -2.62161300       1.33412600       1.22586900
H       -3.56014200      -0.21001900      -0.87550400
24
Properties=species:S:1:pos:R:3 energy=0.0 pbc="T T T"
C        5.42724400       2.29504800      -0.82156200
O        5.29858700       2.09261100       0.57626600
C        4.31146600       1.19796700       1.01661500
C        4.16296100       0.98000100       2.38490100
C        3.20899900       0.11140300       2.87303000
C        2.40581500      -0.53546300       1.96520100
C        2.52401300      -0.34369900       0.59066100
C        1.63519200      -1.06341600      -0.35340100
N        0.41679900      -0.28648100      -0.62006500
C       -0.37190200      -1.06062200      -1.53671100
C       -1.56029600      -1.57464200      -0.78823300
C       -1.39003000      -2.98553400      -0.31667100
O       -1.18291600      -3.88029500      -1.35816100
C       -1.69346000      -0.66806900       0.40500400
C       -2.69466000       0.38199800       0.07348700
C       -2.53655800       1.23396600      -0.97829000
C       -3.48283000       2.19689700      -1.25960000
C       -4.61400600       2.29137100      -0.44962100
C       -4.75498400       1.41719700       0.61243400
N       -3.79815100       0.50284600       0.83252000
C       -0.32095200      -0.11698800       0.58899200
C        3.48955900       0.53319400       0.13179600
H       -2.46291600      -1.48104700      -1.44333100
H       -2.01697400      -1.23824300       1.28442600
25
Properties=species:S:1:pos:R:3 energy=0.0 pbc="T T T"
C        4.85712800      -1.11333200      -0.45494500
C        4.11869800      -0.05072400       0.25997900
C        4.90971700       0.86213000       0.97683800
C        4.32039700       1.88691400       1.67517700
C        2.94734600       1.98780600       1.64920100
C        2.19084600       1.08570300       0.94259900
C        2.76652700       0.03481200       0.22440700
C        1.94022200      -0.90260700      -0.51275700
N        2.23136300      -1.96803700      -1.26196400
N        1.14008800      -2.54459100      -1.75735600
C        0.07636100      -1.86540700      -1.34301600
N       -1.26346000      -2.02641800      -1.55592600
C       -2.06868400      -1.13053200      -0.96631300
C       -1.62950400      -0.09449900      -0.18574700
C       -2.57385300       0.85826900       0.43496200
C       -2.07672100       1.86869800       1.20123800
C       -2.95332000       2.77121400       1.79049100
C       -4.31207700       2.66917700       1.61879600
C       -4.79847900       1.63198200       0.83394600
C       -3.93009000       0.73485900       0.24799900
C       -4.43072600      -0.33662700      -0.56266700
N       -4.86058100      -1.20968500      -1.22320800
N       -0.30976100       0.03930300       0.00604800
C        0.53762900      -0.83389400      -0.56412600
H        3.17093400      -2.35451600      -1.47365800
21
Properties=species:S:1:pos:R:3 energy=0.0 pbc="T T T"
O        1.08348700       0.02692000      -2.05507500
C        1.66607700       0.08515600      -0.94335900
C        3.09450400      -0.18335300      -0.90266700
C        3.80903100      -0.14032900       0.27545600
C        5.16056900      -0.39413800       0.31557500
C        5.80761300      -0.69825700      -0.85738300
N        5.11549700      -0.73992500      -1.99850700
C        3.78419800      -0.48949800      -2.03529300
N        0.94537900       0.40136000       0.21596500
C        1.49317800       0.49842600       1.53742500
C        0.45867200      -0.24645900       2.35728800
C       -0.81430800       0.07792200       1.65487100
O       -1.67327100      -1.03058400       1.50984900
C       -2.88802200      -0.84996500       0.87154200
C       -3.78454700      -1.89704400       0.69290400
C       -4.99814100      -1.69070200       0.04879000
C       -5.33297800      -0.44620600      -0.42315600
C       -4.45917900       0.60700700      -0.25714200
F       -4.75871700       1.84719400      -0.71076400
C       -3.25347200       0.36649600       0.39158200
C       -0.45556800       0.68551600       0.31210000
22
Properties=species:S:1:pos:R:3 energy=-0.9288244680214117 pbc="T T T"
O       -2.05684900      -1.38443300      -0.68992200
C       -2.35823600      -0.40079800       0.03277400
N       -1.29447200       0.38419700       0.47849000
C        0.07669400       0.15487000       0.17929900
C        0.57985000      -0.85063000      -0.57916300
N        1.90590600      -0.92606200      -0.76546900
C        2.77736800      -0.04959000      -0.23592600
C        4.21805400      -0.19229200      -0.48107800
C        5.09780800       0.70543800       0.06259100
C        6.43569700       0.59808200      -0.14732600
C        6.93129100      -0.42463700      -0.91708900
C        6.06218100      -1.32779100      -1.46564900
C        4.71467800      -1.22164200      -1.25561500
N        2.30976800       0.94371800       0.51038000
C        0.97450500       1.05366000       0.72190600
C       -3.76365400      -0.16363000       0.34092300
C       -4.77368100      -0.97166200      -0.12618800
C       -6.10564100      -0.69056800       0.20547400
C       -6.42844900       0.39506400       1.00187500
C       -5.41589600       1.20345400       1.46898300
F       -5.77055000       2.25635400       2.24555400
C       -4.11637200       0.90889800       1.13110700
24
Properties=species:S:1:pos:R:3 energy=0.0 pbc="T T T"
C       -4.36862900       4.15716500      -1.83131800
O       -3.20956700       4.10671900      -2.59662500
C       -2.43218600       3.03687600      -2.17982200
C       -2.08869400       3.23951100      -0.73569000
N       -1.27319400       2.15015300      -0.23739600
C       -1.75328600       0.81382800      -0.25529600
N       -2.96747300       0.49498900      -0.72653200
C       -3.40398400      -0.77513600      -0.73516300
N       -4.69555900      -1.06869000      -1.24272800
N       -2.65869700      -1.78315000      -0.27838600
C       -1.43556200      -1.52259800       0.20479600
C       -0.96400600      -0.21900700       0.22361600
C        0.31442100       0.35006600       0.68713400
C        1.05458700      -0.69431000       1.46571100
N        1.48148700      -1.79837800       0.61510800
C        2.86956400      -1.87282500       0.34519900
O        3.28304400      -2.80284200      -0.37973700
C        3.79536800      -0.86056600       0.91914600
C        5.14669000      -0.91776000       0.66670000
S        5.75331200       0.42223600       1.52313600
C        4.27714900       0.98171900       2.15179500
N        3.39539500       0.12673300       1.68288100
C        0.62899500      -2.79143400       0.04283800
C       -0.74917600      -2.77329900       0.67063300
25
Properties=species:S:1:pos:R:3 energy=0.0 pbc="T T T"
N        6.90674700       2.82273800       0.48111400
C        6.09118300       2.01030500       0.34498600
C        5.07862900       1.00643100       0.19416900
C        3.73559700       1.34790300       0.33356300
C        2.73962000       0.40295500       0.19383200
C        3.02690100      -0.89372400      -0.08425500
C        2.01967800      -1.96535700      -0.24911100
N        0.66526600      -1.48038600      -0.08014200
C        0.42237900      -0.47448300      -1.06005200
C       -0.99816900      -0.03587900      -1.17000500
C       -1.97970000      -1.16673100      -0.95792000
C       -1.25445000      -2.45189200      -1.27633000
C       -0.20685700      -2.63505300      -0.19699200
C       -3.22498500      -0.99897000      -1.79745900
C       -3.93427500       0.19971100      -1.29752300
O       -4.66254800       0.84224700      -2.08558700
C       -3.79553600       0.63283600       0.08165500
C       -4.45504600       1.71380300       0.59335300
C       -4.31556000       2.11494100       1.90287500
C       -3.49490600       1.43163500       2.75598000
C       -2.81103800       0.33688000       2.28421200
C       -2.96354100      -0.04449800       0.98124400
O       -2.29929500      -1.15268800       0.42216500
C        4.35258600      -1.25226500      -0.22620400
C        5.35732200      -0.31045800      -0.08756700
22
Properties=species:S:1:pos:R:3 energy=-2.333301148224493 pbc="T T T"
C        0.86253300       2.13221500       0.35997900
C        2.30822500       1.66654900       0.45465500
C        3.27481400       2.55923500       0.72719300
C        4.55451800       2.12225200       0.80668800
S        4.38690700       0.45755000       0.49702800
C        2.67249500       0.37912400       0.27516300
C        1.92732800      -0.83647400      -0.02661000
N        2.49499300      -2.07957300      -0.17367400
N        1.54254500      -2.94646100      -0.44003900
C        0.34802300      -2.35206300      -0.48186500
N       -0.91603400      -2.78024900      -0.70985000
C       -1.90725000      -1.87659500      -0.67323600
C       -1.69370600      -0.54246200      -0.41544100
C       -2.82650700       0.39600800      -0.38998400
C       -2.65325500       1.73160700      -0.13682400
C       -3.74003600       2.57795800      -0.12178900
C       -5.00993800       2.09294600      -0.36037800
C       -5.21049000       0.75325500      -0.61756400
C       -4.10213200      -0.05738300      -0.62377100
N       -0.43968100      -0.13842600      -0.19287200
C        0.59658100      -0.99819800      -0.21638800
H        3.53006600      -2.26081500      -0.07942000
24
Properties=species:S:1:pos:R:3 energy=-0.12190629329504372 pbc="T T T"
N        6.44917600       1.64882700       0.06978700
C        5.49361900       1.00176400       0.03467300
C        4.30207000       0.17848300       0.01076300
C        3.77270400      -0.34545800       1.16882500
C        2.63833300      -1.13024400       1.15346600
C        1.97528800      -1.42992500      -0.03046200
C        0.75647100      -2.27940500      -0.01672100
N       -0.38562400      -1.45934500       0.13521600
C       -0.49500400      -0.65717300       1.28963700
C       -0.72431800       0.73399800       0.75562900
C        0.55570800       1.42083700       0.33101100
O        0.25701800       2.68287900      -0.14295600
C       -1.56128600       0.47110200      -0.47555100
C       -2.95027300       0.06773200      -0.11902500
C       -3.21252200      -0.93311600       0.78892000
C       -4.51280500      -1.26197600       1.07833900
N       -5.51323900      -0.61544200       0.48322200
C       -5.31855400       0.36701200      -0.40850000
C       -4.00394700       0.70362800      -0.70486100
C       -0.87970100      -0.79346200      -1.01663600
C        2.51393000      -0.89989100      -1.18597400
C        3.65021000      -0.11406900      -1.16851600
H       -1.26240700       1.36699300       1.49389000
H       -1.54484800       1.27624900      -1.20714400
22
Properties=species:S:1:pos:R:3 energy=0.0 pbc="T T T"
C        7.33040500      -1.60072900      -1.06044200
O        6.07916900      -1.43410900      -1.66833000
C        4.90918700      -1.20070900      -0.95105000
C        4.97662200      -1.12875300       0.42270700
C        3.81086400      -0.89530900       1.15204900
C        2.58383900      -0.73194600       0.55531000
C        1.41461600      -0.49018000       1.41312900
N        1.19709900       0.94516800       1.65165900
C        0.98094600       1.58113300       0.34172100
C       -0.39774500       0.95798100       0.35738300
O       -1.41259400       1.76413200      -0.20431600
C       -2.70144900       1.24789200      -0.21970400
C       -3.01207600       0.00348100       0.28418900
C       -4.28535400      -0.50124500       0.26659600
C       -5.28458400       0.27814300      -0.27996100
O       -6.59197300      -0.19012800      -0.32067600
C       -6.90106200      -1.45605100       0.19326500
C       -4.97102700       1.53257700      -0.78782800
C       -3.69669700       2.03297000      -0.76806800
C       -0.24718400       1.13082200       1.87079900
C        2.52589400      -0.80553200      -0.81989900
C        3.69310600      -1.03961100      -1.55584800
23
Properties=species:S:1:pos:R:3 energy=0.0 pbc="T T T"
C        6.50748500       0.98191100      -2.04713200
O        5.31126300       1.70699100      -2.06796000
C        4.21039000       0.89420000      -1.78100900
C        4.43294500       0.31584400      -0.39365600
N        3.29496100      -0.54912700      -0.04878600
C        1.95075300      -0.00451200       0.00561200
O        1.87148800       1.21180200      -0.25801900
C        0.87127200      -0.90636900       0.35106700
N        1.08052300      -2.22736300       0.62119300
C       -0.11331700      -2.77611500       0.90209800
S       -0.93288800      -4.21043000       1.33325200
C       -2.51865500      -3.58794100       1.40183000
C       -2.30950000      -2.29463400       1.08284500
N       -1.08786500      -1.87659500       0.82775000
C       -0.46456200      -0.69280300       0.47888600
C       -1.16802000       0.58855400       0.28279800
C       -0.59295300       1.76257500      -0.05751600
C       -1.30331600       2.92772800      -0.22649500
C       -2.67428700       2.95892600      -0.05292100
C       -3.26396400       1.76837600       0.29304100
C       -4.69641900       1.72535400       0.49143900
N       -5.84877900       1.67909900       0.65936500
C       -2.55655500       0.60452900       0.46211800
25
Properties=species:S:1:pos:R:3 energy=0.0 pbc="T T T"
O       -2.79524100       1.62730000      -0.17354900
C       -2.87418400       0.80008300      -1.12333300
N       -1.75770100      -0.03268600      -1.34161200
C       -0.57220300       0.01789200      -0.55509100
N       -0.41233000       0.86841800       0.47012200
C        0.73144900       0.90873300       1.21973500
C        1.77406000       0.05761700       0.93580100
C        2.99224500       0.10257000       1.73629900
C        3.58173200       1.32579800       2.07010400
C        4.72819700       1.43334000       2.82053000
C        5.32945800       0.26536900       3.26865000
C        4.75527600      -0.92982000       2.94367800
F        5.34074100      -2.07335800       3.38032200
C        3.60841300      -1.03300900       2.19279700
C        1.66171900      -0.83464600      -0.10554300
C        0.46960000      -0.83634000      -0.84291200
O        0.56304900      -1.80353200      -1.83891600
C        1.86025000      -2.31924900      -1.93010500
C        2.57507700      -1.86608400      -0.66564800
C       -4.08706400       0.74018500      -1.93689800
C       -5.13945600       1.58134200      -1.67137000
C       -6.31113900       1.57534300      -2.40082900
N       -6.40934200       0.70755300      -3.40525300
C       -5.40432700      -0.13366300      -3.70008000
C       -4.20827900      -0.14915600      -2.97895900
22
Properties=species:S:1:pos:R:3 energy=0.0 pbc="T T T"
O        6.87523600      -0.50410400      -0.52027200
C        6.16951800      -0.08730000       0.41514100
O        6.80428100       0.41754200       1.53849500
C        4.71212500      -0.13042500       0.32837100
C        3.90687600       0.32247400       1.34618400
C        2.53768900       0.26163100       1.21894300
C        1.90971000      -0.24734200       0.08496000
C        0.44763800      -0.28772300       0.00488400
C       -0.31573400      -0.46874700       1.14081500
C       -1.69532700      -0.50302000       1.03707700
C       -2.36089000      -0.36358700      -0.16143800
N       -3.78967100      -0.40211500      -0.24819200
C       -4.31107400      -0.23645300      -1.59199700
C       -5.05129900       1.10646600      -1.65033700
C       -6.08360600       1.04356100      -0.52523100
C       -5.40178000       1.68693000       0.68278700
C       -4.91437500       0.66608700       1.66197300
C       -4.43365600      -0.60056500       1.03457000
N       -1.59152300      -0.18793900      -1.25639300
C       -0.24286700      -0.15076900      -1.18173100
C        2.71830500      -0.69610300      -0.92358500
C        4.11042400      -0.63850100      -0.80376700
24
Properties=species:S:1:pos:R:3 energy=0.0 pbc="T T T"
C       -5.24518200      -1.22851900       2.65286500
O       -5.15018800       0.17140500       2.49311100
C       -4.08958600       0.74488600       1.80006200
C       -4.05456300       2.10910900       1.67972600
C       -2.97749600       2.64481500       0.97928900
C       -1.98745900       1.85948500       0.42800900
C       -2.04174400       0.50658700       0.55935800
C       -1.00838100      -0.36572400      -0.01132200
C       -0.95115400      -1.74270600       0.05210000
N        0.12330600      -2.20333500      -0.57242300
C        0.78601000      -1.10323100      -1.05606500
N        0.08453400      -0.01738800      -0.70485800
N        1.99089500      -1.27046900      -1.78922100
C        3.00536400      -0.32384600      -1.82007500
O        4.01383200      -0.60009900      -2.58414400
C        3.05256500       0.93216100      -1.08936700
C        2.21113100       1.53317000      -0.21576800
C        2.54169800       2.71024200       0.29513700
C        3.72935400       3.26464900      -0.09013700
S        4.33830000       2.09085500      -1.16890500
C        2.13847100      -2.54762600      -2.53086400
C        1.97135900      -3.59651600      -1.42126700
C        0.62364200      -3.53362500      -0.79333300
C       -3.10470700      -0.03428000       1.25150600
21
Properties=species:S:1:pos:R:3 energy=-0.4357225529201172 pbc="T T T"
N       -4.78017200      -2.58455300      -0.35908600
C       -4.39845700      -1.49803700      -0.23646400
C       -3.93132500      -0.15997800      -0.09355400
C       -4.80928700       0.85352000       0.17357400
C       -4.37521900       2.15390300       0.31497300
C       -3.02371900       2.40790800       0.17916100
C       -2.13752200       1.38478200      -0.09049300
C       -2.58349200       0.07682900      -0.23150200
C       -1.62115500      -1.00402300      -0.51969900
N       -0.29000300      -0.49744700      -0.61461200
C        0.69214800      -1.51349300      -0.89551800
C        2.09330200      -1.01418400      -0.86913900
C        2.44309200      -0.16573300       0.30376400
C        1.26125900      -0.06736200       1.24815000
C       -0.00328500       0.29231300       0.54150100
C        3.59979500      -0.76039700       1.05036300
C        4.92890200      -0.22049600       0.63556200
O        5.49216100       0.63045900       1.57837400
C        4.97182800       0.31473000      -0.75753800
C        3.69495000       0.97068700      -1.18973700
O        2.77619900       1.10393500      -0.16808200
21
Properties=species:S:1:pos:R:3 energy=0.0 pbc="T T T"
C       -5.10984800      -2.36009500      -1.37596300
O       -3.86961500      -1.91025900      -0.89784800
C       -3.73430900      -0.57636600      -0.54891000
C       -4.78954000       0.32346800      -0.65943800
C       -4.61764700       1.63592500      -0.30441600
C       -3.40254100       2.09870300       0.16909200
C       -2.35292100       1.21367400       0.28134400
C       -2.51895600      -0.11936000      -0.07666300
C       -1.40877300      -1.08745200       0.03470500
N       -0.21142400      -0.46163900       0.54045000
C        0.88856600      -1.36083600       0.66475100
C        2.19041800      -0.86347000       0.17890300
C        2.48593500       0.57217700       0.51867900
C        1.24433500       1.41576700       0.63282100
C        0.15729500       0.72446600      -0.16844700
C        3.26322000       0.71867100       1.80188300
C        4.64015500       0.07947900       1.69271800
O        4.82421500      -0.86102500       2.70993700
C        4.68015900      -0.62368200       0.34025500
C        4.40913800       0.36032500      -0.74794300
O        3.23213900       1.08153000      -0.55983400
21
Properties=species:S:1:pos:R:3 energy=0.0 pbc="T T T"
C       -5.30015900      -2.64700300      -0.83971100
C       -4.08226700      -1.86972100      -0.48781600
N       -2.79486900      -2.14323600      -0.75439000
N       -2.07213400      -1.15339900      -0.23737200
C       -2.90265000      -0.27410000       0.34440700
C       -2.54768700       0.97377800       1.04247300
C       -1.49080200       0.70050500       2.11037000
C       -0.16184400       1.00766000       1.45261000
N       -0.49893100       1.03814800       0.02324200
C        0.53536300       1.70162100      -0.73849300
C        1.81681800       1.00825600      -0.58961400
C        2.65348400       1.38785900       0.43526000
C        3.87297400       0.77826300       0.63292100
C        4.30752600      -0.23649800      -0.18557900
C        5.58828200      -0.88437900       0.01347600
N        6.62356300      -1.38576000       0.17538300
C        3.45736700      -0.60458600      -1.20732600
C        2.23435200      -0.00670400      -1.42058000
C       -1.72647900       1.81437400       0.05706800
O       -4.11169700      -0.72888800       0.17981800
H       -3.40020900       1.52381100       1.43364400
20
Properties=species:S:1:pos:R:3 energy=0.0 pbc="T T T"
O       -0.96247700       0.63805300       2.11566500
C       -1.34517700       0.02883600       1.06606100
C       -2.46063100       0.52821800       0.28839500
C       -2.86534900      -0.13218400      -0.83773600
C       -3.91960900       0.34795700      -1.56456400
N       -4.53797700       1.46171900      -1.15638800
C       -4.17885400       2.14268400      -0.06189400
C       -3.10666300       1.67070700       0.69367200
N       -0.67204800      -1.13689300       0.66848600
C       -0.98592900      -1.95246700      -0.50917600
C        0.14726500      -2.93700900      -0.63775300
C        1.25623600      -2.25806000       0.13895500
O        1.63356700      -1.10616000      -0.56899700
C        2.60867400      -0.22285500      -0.18837300
C        2.84526600       0.86492300      -1.01815000
C        3.80866500       1.81687000      -0.72576500
C        4.55934000       1.70111100       0.40734900
C        4.33949000       0.62205800       1.25046300
C        3.36976900      -0.32561000       0.94504500
C        0.46644200      -1.75189900       1.35641600
25
Properties=species:S:1:pos:R:3 energy=0.0 pbc="T T T"
C        4.79646100       2.09726500       1.87698900
O        5.54941900       1.43677900       0.87438500
C        4.99192800       0.37715900       0.21016600
C        5.72423000      -0.26846900      -0.76789400
C        5.19178400      -1.33464400      -1.45146300
C        3.92783100      -1.74749300      -1.15040400
C        3.18028700      -1.12632200      -0.18640500
C        1.83254200      -1.59554000       0.10825100
N        1.17266000      -0.83598400       1.15096500
C        1.11240800       0.55017800       0.66096700
C        0.37808400       0.33538500      -0.65752800
C       -0.59543300      -0.77115200      -0.31463000
C       -1.95509700      -0.17506200      -0.26292400
N       -2.35096800       0.86955900       0.48119300
C       -3.65191500       1.13175700       0.27275400
C       -4.51336100       2.07896600       0.78219600
C       -5.84342000       2.13476400       0.39142300
C       -6.27026700       1.20512900      -0.52705300
C       -5.41227600       0.25248700      -1.04218400
C       -4.09181400       0.20644500      -0.64639900
N       -3.04741200      -0.57672300      -0.95837800
C       -0.23466700      -1.19378900       1.09909700
C        3.71023600      -0.06574700       0.49341400
H       -0.54868200      -1.61247400      -1.00369900
H       -3.05255700      -1.37247400      -1.62609600
27
Properties=species:S:1:pos:R:3 energy=-0.7766061559452075 pbc="T T T"
F       -5.91406700       1.95382800       1.54324100
C       -5.44955100       0.78316000       1.04456300
C       -6.23858800      -0.30528400       0.77445400
C       -5.66851000      -1.46533500       0.26289500
C       -4.30263300      -1.53978900       0.01934300
C       -3.51581100      -0.46160400       0.28607900