22
Properties=species:S:1:pos:R:3 energy=1.0 pbc="T T T"
C        5.55005100       2.08993700       0.78843700
C        4.22247400       2.40321800       1.00713800
C        3.20378900       1.56563100       0.61017200
C        3.55220200       0.39532800      -0.01730300
N        2.56393200      -0.49353200      -0.44237500
C        1.16551700      -0.29337100      -0.28005400
N        0.62559300       0.78817800       0.30874600
C       -0.71578000       0.94595000       0.44652200
C       -1.61961400       0.00625600      -0.00863400
C       -3.06528600       0.15969400       0.13115700
C       -3.69324500       1.37152900      -0.16342600
N       -5.01287100       1.51572900      -0.03711100
C       -5.78737200       0.51111600       0.37497000
N       -5.20995600      -0.66700900       0.66564600
C       -3.89263400      -0.85628400       0.55361500
C       -1.08712800      -1.11265800      -0.61670300
C        0.28526200      -1.24906900      -0.74456200
O        0.54385900      -2.45865100      -1.38887800
C       -0.61000900      -3.30080200      -1.25506500
C       -1.75975800      -2.30463300      -1.21351400
C        4.87152400       0.07260700      -0.24061000
C        5.86945100       0.91083800       0.15754700
24
Properties=species:S:1:pos:R:3 energy=0.9279359430604982 pbc="T T T"
C        6.30353700       2.81649900       0.50946100
O        4.96935700       2.39200000       0.44650500
C        4.61876200       1.04395700       0.25398000
C        5.56668800       0.07023200       0.11719700
C        5.19815500      -1.24516600      -0.07071800
C        3.85699900      -1.54801200      -0.11636900
C        2.86802600      -0.58911200       0.01822600
C        1.46518800      -0.97306300      -0.03908400
C        0.97079800      -2.24370300      -0.22094900
N       -0.36591300      -2.15380000      -0.21065700
C       -0.74073400      -0.86064100      -0.02721900
N        0.40518000      -0.15899800       0.07484500
N       -2.10455700      -0.48412900       0.02387100
C       -2.47733800       0.86356700       0.21168100
O       -1.61684200       1.79124900       0.34209100
C       -3.87920100       1.25099200       0.26435800
C       -4.99346000       0.41777000       0.14691500
C       -6.08260800       1.25584000       0.26282300
O       -5.71656000       2.48506600       0.43480000
C       -4.41059500       2.50946700       0.43951600
C       -3.12568200      -1.48806200      -0.11746400
C       -2.63355200      -2.65365200      -0.96646600
C       -1.35802300      -3.20430000      -0.36212700
C        3.28237200       0.70599900       0.20333900
24
Properties=species:S:1:pos:R:3 energy=0.4430604982206405 pbc="T T T"
N        4.74381800       2.85665100       0.09959000
C        4.31752900       1.75923400       0.13265100
C        3.79898600       0.41903300       0.14798300
C        4.52320400      -0.59432600       0.78391100
C        4.02111800      -1.87040200       0.79075900
C        2.80941300      -2.15066200       0.17392400
C        2.12812500      -1.12303200      -0.44117200
C        0.84103800      -1.43692000      -1.09642800
N        0.28941500      -0.28409400      -1.78317600
C       -0.95905700      -0.71896500      -2.38234600
C       -2.02711700      -0.61259800      -1.34899800
C       -2.82824100      -1.85904000      -1.15461300
O       -2.04709000      -2.94144100      -0.75786100
C       -1.26240400      -0.20234300      -0.10746100
C       -2.08764900       0.63320800       0.78756800
C       -2.15417100       0.45527900       2.15151100
C       -2.96913300       1.29547600       2.90967200
C       -3.70815200       2.29838400       2.32101000
C       -3.60676200       2.43598700       0.94675500
N       -2.81465800       1.61141500       0.25309200
C       -0.15502600       0.64320100      -0.76094900
C        2.59188100       0.18010200      -0.47575200
H       -2.71517600       0.22189500      -1.57978100
H       -0.72989100      -1.01604300       0.39011200
18
Properties=species:S:1:pos:R:3 energy=0.3870106761565836 pbc="T T T"
N       -3.76345000       3.14152600       1.49558100
C       -3.17681900       2.14431100       1.42338100
C       -2.42575700       0.91493000       1.32909900
C       -2.15875900       0.24032900       2.49724400
C       -1.44924800      -0.93904400       2.49940300
C       -1.00966900      -1.43203200       1.29848200
C       -1.26691500      -0.76841100       0.10392000
C       -0.75395400      -1.37673200      -1.13059600
N        0.57896600      -0.93841700      -1.48168400
C        0.54528200       0.49391600      -1.66590000
C        0.72853000       1.26742900      -0.39848100
O        2.00082500       1.12094300       0.11858900
C        2.85655700       0.61747000      -0.87218800
C        2.90976500      -0.91138000      -0.77750400
O        3.30637800      -1.44518300      -2.00028800
C        1.48129700      -1.33995700      -0.43307400
C       -1.98122200       0.41354700       0.12898600
H        3.57819200      -1.20324400       0.05699200
22
Properties=species:S:1:pos:R:3 energy=1.0 pbc="T T T"
C       -0.32916800       0.89712500      -2.49275700
N       -1.29207300      -0.17863200      -2.67741300
C       -1.12573700      -0.60341100      -4.08134000
C       -0.89516900      -1.34393900      -1.90378800
C       -0.83516700      -1.12447400      -0.43479000
N        0.53921200      -1.30878700      -0.07376700
C        1.24291400      -0.55089300       0.91961000
O        2.41690700      -0.87098700       1.16013300
C        0.58615700       0.53672400       1.57559100
C       -0.70638000       0.90397000       1.48114000
C       -1.29315600       2.03074900       2.18422500
C       -0.49414100       2.76917100       2.97402200
C       -0.67352300       4.00564500       3.62392000
N       -0.84874700       5.09127000       4.18174000
C        0.85779500       2.32170000       3.02072800
C        1.43130100       1.35401100       2.44856100
C        1.07174000      -2.34556300      -0.95713300
C        0.51011800      -1.78099900      -2.27649900
C        0.50368300      -2.82146700      -3.30058200
O       -0.14813400      -3.96789600      -2.95724900
H       -1.64861800      -2.13397100      -2.11714000
H        1.13018600      -0.87934500      -2.54129700
24
Properties=species:S:1:pos:R:3 energy=1.0 pbc="T T T"
C        6.11038500       2.26984600       0.26602800
O        5.40923400       1.22421000       0.87513800
C        4.09681000       0.95253200       0.50423400
C        3.43093800       1.67449800      -0.45474800
C        2.12837700       1.37029700      -0.79187800
C        1.50044600       0.33261600      -0.15559800
C        2.15991200      -0.39176600       0.80254900
C        1.52776000      -1.53659800       1.53291400
N        0.19257600      -1.68484400       1.04183000
C        0.22082800      -1.95501300      -0.38052100
C       -1.06218300      -1.44973300      -0.96368600
C       -1.89654600      -2.50925100      -1.61118400
O       -2.22074400      -3.46965400      -0.66384400
C       -1.76444500      -0.81076900       0.22707600
C       -2.47586800       0.38991900      -0.27244600
C       -3.83848400       0.44351200      -0.06024400
C       -4.61847300       1.50052200      -0.47291500
C       -3.97659400       2.53543500      -1.12462200
C       -2.61802300       2.44564800      -1.31727700
N       -1.89337500       1.39710600      -0.89926100
C       -0.58694800      -0.46060300       1.10951600
C        3.45584800      -0.09095700       1.13961600
H       -0.86198300      -0.64881400      -1.72676400
H       -2.41944800      -1.52814000       0.71576800
25
Properties=species:S:1:pos:R:3 energy=1.0 pbc="T T T"
C       -3.78649000      -2.49014400      -2.15712900
C       -2.92127700      -1.34583700      -2.59941200
C       -3.18381900      -0.82255600      -3.87945000
C       -2.44156700       0.21774800      -4.35413000
C       -1.45046100       0.72188800      -3.55022600
C       -1.19783300       0.20889000      -2.30310200
C       -1.94344300      -0.85773400      -1.79118100
C       -1.65492700      -1.37780300      -0.47377100
N       -2.23666700      -2.36853900       0.18260900
N       -1.62889900      -2.48565800       1.36915400
C       -0.65963200      -1.59656400       1.51315600
N        0.23996400      -1.29076200       2.49084700
C        1.12332900      -0.29211300       2.31604100
C        1.13084900       0.43621500       1.14480900
C        2.09809500       1.53117600       0.95098800
C        2.06242200       2.22880700      -0.24068600
C        2.94774900       3.25947600      -0.46442100
C        3.85475000       3.58076500       0.49967000
C        3.92204900       2.91433600       1.69248100
C        3.01611100       1.87536800       1.89592200
C        3.05183700       1.14429800       3.14174500
N        3.07507700       0.54696900       4.14293600
N        0.24203300       0.13149300       0.18304000
C       -0.63767800      -0.86450400       0.35952900
H       -3.02157100      -3.00521500      -0.06941900
21
Properties=species:S:1:pos:R:3 energy=1.0 pbc="T T T"
O        3.27766400      -1.96114300      -1.39841500
C        2.72525500      -1.18661500      -0.57284000
C        3.50007600      -0.06618300      -0.07344200
C        4.87091300      -0.04951100      -0.15534500
C        5.55045700       1.06309600       0.26587000
C        4.82781300       2.15956600       0.78961200
N        3.48363400       2.10102400       0.85400500
C        2.85255400       1.04880900       0.44315500
N        1.41180300      -1.37488500      -0.12223900
C        0.50391100      -2.40599100      -0.63915400
C       -0.70216400      -1.45123500      -0.79952600
C       -0.79771400      -0.96554600       0.66941400
O       -1.44121000       0.34567000       0.50269000
C       -2.81912200       0.25421300       0.21411500
C       -3.39869600      -0.95857200      -0.07220900
C       -4.72273500      -1.06680600      -0.36972500
C       -5.48312100       0.06498000      -0.37272800
C       -4.96032600       1.32398800      -0.09010400
F       -5.76146300       2.43563100      -0.07640400
C       -3.60994600       1.35529200       0.19293500
C        0.69241600      -0.66578200       0.87661500
22
Properties=species:S:1:pos:R:3 energy=0.395017793594306 pbc="T T T"
O       -1.86600500      -1.48827600      -0.04697500
C       -2.27448400      -0.28622400      -0.16164100
N       -1.29646400       0.72168000      -0.16065800
C        0.09967300       0.48136800      -0.04104900
C        0.93104400       1.58235300      -0.05733400
N        2.24787800       1.37783000       0.05392600
C        2.81006100       0.15694900       0.18116600
C        4.26485100       0.05781400       0.29518400
C        5.04926300       1.18931400       0.27342300
C        6.42581200       1.14542000       0.37778900
C        7.04271800      -0.08441900       0.50956300
C        6.26824300      -1.23328300       0.53327600
C        4.87918600      -1.16933900       0.42657800
N        1.99925600      -0.89137200       0.19526100
C        0.66552000      -0.75385700       0.08746900
C       -3.69563000      -0.05418500      -0.28251000
C       -4.16544700       1.23147400      -0.40746200
C       -5.54364000       1.47664800      -0.52609000
C       -6.42646000       0.42023100      -0.51676800
C       -5.96925100      -0.86976700      -0.39243700
F       -6.84228300      -1.93119500      -0.38206100
C       -4.60384100      -1.07916600      -0.27726400
24
Properties=species:S:1:pos:R:3 energy=1.0 pbc="T T T"
C        4.59592500       3.47261100      -0.48027900
O        3.84695400       2.85799800       0.51034300
C        4.48388600       1.77806300       1.08998600
C        3.58519500       1.20048300       2.13675800
N        2.32738600       0.74476000       1.63168000
C        2.19180700      -0.26793600       0.64158300
N        3.24957900      -0.88189900       0.09802100
C        3.16802600      -1.84193800      -0.83825200
N        4.35976700      -2.45780500      -1.37699800
N        1.94955300      -2.20925800      -1.25553000
C        0.84420200      -1.63504700      -0.75293400
C        0.93778200      -0.64667800       0.21144600
C       -0.10907900       0.13132300       0.91483800
C       -1.24265700       0.33181300      -0.09911600
N       -1.99989300      -0.90040000      -0.10962900
C       -3.39768600      -0.84999600       0.03208500
O       -4.05565100      -1.91412000       0.02339800
C       -4.09760800       0.41979500       0.18930000
C       -5.48651100       0.47586200       0.33050300
S       -5.78389300       2.33660800       0.48886600
C       -3.97308600       2.65502900       0.33190300
N       -3.53453800       1.60922000       0.21606400
C       -1.44601100      -2.22385100      -0.25611500
C       -0.41345200      -2.18463400      -1.34915000
25
Properties=species:S:1:pos:R:3 energy=1.0 pbc="T T T"
N        7.33562100       1.68253500       1.58302700
C        6.43339100       1.07061800       1.18272500
C        5.31435200       0.32206700       0.67526100
C        5.28534700      -1.06609200       0.67947200
C        4.17499200      -1.75568800       0.17528900
C        3.10332900      -1.05643000      -0.32863600
C        1.92908500      -1.73183600      -0.86249900
N        0.90855200      -1.98340100       0.13268300
C       -0.23670200      -2.64473200      -0.40041200
C       -1.10793100      -1.70300500      -1.22224600
C       -1.54686000      -0.55606600      -0.30973600
C       -0.33220900       0.13225600       0.26884300
C        0.61469800      -0.82726800       0.93318000
C       -2.41712600      -1.13998100       0.75059100
C       -3.80136700      -0.64630500       0.72865000
O       -4.78249600      -1.34379600       1.16056400
C       -4.11235600       0.66946700       0.20904300
C       -5.18327800       1.41822400       0.62040700
C       -5.43774100       2.66855200       0.09417400
C       -4.58696500       3.17100200      -0.87107800
C       -3.50378500       2.43022900      -1.29679300
C       -3.24927100       1.17649900      -0.76863400
O       -2.20052700       0.38623600      -1.13837600
C        3.15556300       0.31667200      -0.32192700
C        4.24368400       1.01024000       0.17193400
22
Properties=species:S:1:pos:R:3 energy=0.0969750889679715 pbc="T T T"
C       -4.80581200       0.37688700       0.68217200
C       -3.66628800       1.29928400       0.27005200
C       -3.87655900       2.59656300       0.02283200
C       -2.96622400       3.41015500      -0.32329300
S       -1.47448700       2.24618500      -0.34038700
C       -2.40804400       0.84003100       0.14052900
C       -1.85112200      -0.51179300       0.33620800
N       -2.50275100      -1.61299000       0.69827100
N       -1.65654600      -2.63513600       0.76827200
C       -0.43214800      -2.19112500       0.44595100
N        0.76667800      -2.80270100       0.36084700
C        1.84277200      -2.07758600       0.00379400
C        1.79024600      -0.73036300      -0.28334800
C        2.97140900       0.03090000      -0.66760900
C        4.19657300      -0.58368100      -0.75690600
C        5.34740300       0.09849900      -1.11817600
C        5.24894500       1.44308800      -1.39626000
C        4.04871300       2.08724400      -1.31805200
C        2.90237400       1.37355000      -0.95066300
N        0.57813000      -0.14576200      -0.18986500
C       -0.51004100      -0.84523300       0.16375300
H       -3.54322000      -1.66601500       0.90073900
24
Properties=species:S:1:pos:R:3 energy=0.8852313167259785 pbc="T T T"
N        6.55797600       1.44571700      -2.45411200
C        5.56130000       1.24832800      -1.90079800
C        4.33074600       1.00941000      -1.19005500
C        3.11996700       0.84963300      -1.83252300
C        1.95247900       0.62135700      -1.12945200
C        1.94025200       0.54210500       0.24778200
C        0.67285900       0.29586000       0.98280700
N        0.41445000      -1.10237800       1.18436400
C        0.30769700      -1.83433600      -0.07266100
C       -1.03548600      -1.30366600      -0.56960300
C       -1.59055800      -2.16767500      -1.67319300
O       -2.80384200      -1.61725300      -2.06306000
C       -1.86055600      -1.40134100       0.70482200
C       -2.68895100      -0.19657600       0.82311900
C       -4.07660400      -0.24100400       0.95516100
C       -4.84497600       0.88215400       1.06505900
N       -4.24010200       2.08335700       1.04536600
C       -2.88680900       2.18101900       0.91832300
C       -2.11247700       1.04524700       0.80745200
C       -0.82944200      -1.38105700       1.82203700
C        3.15018000       0.70171700       0.89081600
C        4.31738600       0.92980100       0.19014400
H       -0.88641400      -0.26205700      -0.85748700
H       -2.46907600      -2.32836200       0.73400500
22
Properties=species:S:1:pos:R:3 energy=1.0 pbc="T T T"
C       -7.07841400      -1.63031700      -0.32890700
O       -5.73766600      -1.68603900       0.12097100
C       -4.80255400      -0.76609500      -0.36385400
C       -3.52078000      -0.88258600       0.11889100
C       -2.57002400       0.01249700      -0.34052300
C       -2.85997400       0.99212700      -1.24371500
C       -1.86608600       1.96648500      -1.75618300
N       -0.56109500       1.78501000      -1.21221000
C       -0.59424700       1.93259300       0.24463400
C        0.51172400       0.90028700       0.30109400
O        1.80320500       1.42047000       0.06811900
C        2.93942900       0.62896100       0.07954100
C        2.79773200      -0.70891400       0.32699600
C        3.90050800      -1.52082000       0.34565500
C        5.14877200      -0.93660100       0.10634800
O        6.30145100      -1.71829500       0.11425500
C        6.19871300      -3.09482700       0.36409900
C        5.26792500       0.41230300      -0.14052400
C        4.14560900       1.21017500      -0.15458900
C       -0.17584600       0.38772900      -0.96655200
C       -4.14400600       1.08998100      -1.71161400
C       -5.10437400       0.20587500      -1.26423700
23
Properties=species:S:1:pos:R:3 energy=1.0 pbc="T T T"
C        5.05913300       0.22606400      -5.09217000
O        4.29941000      -0.22825800      -4.01499900
C        4.81702800       0.33733800      -2.85101700
C        4.07001100      -0.08679900      -1.62483400
N        2.68079400       0.32175600      -1.74246700
C        1.76424700       0.01250200      -0.66087000
O        2.25903000      -0.58685100       0.28996700
C        0.36281800       0.42587100      -0.78197200
N       -0.13677700       1.09044900      -1.86135100
C       -1.40295800       1.30369700      -1.64976000
S       -2.92393800       2.02777900      -2.33305600
C       -4.03656100       1.59472900      -0.90412500
C       -3.05744400       0.95880100      -0.12405900
N       -1.83783000       0.82552300      -0.47235900
C       -0.67139100       0.25786000       0.07641800
C       -0.64409800      -0.40381100       1.38835300
C        0.44275800      -0.95614900       1.94671900
C        0.48462200      -1.57997700       3.17548200
C       -0.69548900      -1.63830300       3.88766500
C       -1.84208600      -1.09088200       3.36928500
C       -3.08812800      -1.15010100       4.11649400
N       -4.08111700      -1.17707100       4.71187100
C       -1.82203500      -0.48416800       2.14358000
25
Properties=species:S:1:pos:R:3 energy=1.0 pbc="T T T"
O        2.62237000       2.01752500      -0.59321800
C        3.05062700       0.86149100      -0.38712200
N        2.09687400      -0.15215200      -0.12527300
C        0.69797900       0.09309000      -0.08913200
N        0.14133500       1.29210100      -0.29592900
C       -1.19470300       1.49055900      -0.25419800
C       -2.07468900       0.45243900       0.00802100
C       -3.51214800       0.66501600       0.05308500
C       -4.17601300       1.40875600      -0.89651500
C       -5.55123900       1.60856000      -0.84802400
C       -6.27352600       1.04347100       0.18462900
C       -5.63116200       0.29787700       1.14246400
F       -6.36329700      -0.23949300       2.13592800
C       -4.26759600       0.12140700       1.06186000
C       -1.52646900      -0.79558200       0.22517400
C       -0.14539400      -0.96546500       0.17495300
O        0.13907200      -2.30955100       0.42750900
C       -1.04715300      -3.08150800       0.36851900
C       -2.17166900      -2.08051000       0.52261200
C        4.48170700       0.60374100      -0.42268600
C        5.02374500      -0.63675200      -0.20606900
C        6.39763100      -0.78676200      -0.25983200
N        7.24024600       0.22842300      -0.51571000
C        6.69598400       1.44128800      -0.72662900
C        5.34749000       1.64096500      -0.68441600
22
Properties=species:S:1:pos:R:3 energy=1.0 pbc="T T T"
O       -6.82498200      -0.02347300       0.87190700
C       -6.17028200      -0.70038400       0.05751000
O       -6.76853000      -1.64227000      -0.74297100
C       -4.73845700      -0.48138100      -0.04120200
C       -3.94573000      -1.20232900      -0.92909600
C       -2.58912600      -1.01004000      -1.03808500
C       -1.94079700      -0.06729200      -0.24816700
C       -0.50230900       0.15215500      -0.34997000
C        0.21592700       0.01036200      -1.49618200
C        1.57154200       0.23481600      -1.50978600
C        2.20748400       0.60944300      -0.33866600
N        3.61011600       0.85370300      -0.30477600
C        4.13245800       1.22117400       0.98029100
C        5.56761400       0.83656200       1.19689200
C        5.75565800      -0.58844500       0.73614600
C        6.22637000      -0.64069400      -0.71034400
C        5.02520400      -0.63423800      -1.63596100
C        4.29054700       0.69460200      -1.56800600
N        1.49832100       0.74773700       0.78359600
C        0.18416000       0.52868100       0.78951100
C       -2.72349500       0.64436000       0.62836900
C       -4.08169600       0.45695100       0.74208200
24
Properties=species:S:1:pos:R:3 energy=1.0 pbc="T T T"
C        4.92136900       3.70935800       0.44377200
O        3.75081100       2.90380200       0.55256000
C        3.60931100       1.71463300      -0.15767400
C        4.58924100       1.23568400      -1.01289700
C        4.38618800       0.06155300      -1.67938200
C        3.22686400      -0.66576600      -1.52492400
C        2.26550100      -0.18099400      -0.67603000
C        1.00344100      -0.88943900      -0.45268900
C        0.59446400      -2.09407200      -1.02419300
N       -0.62725100      -2.41732000      -0.57370200
C       -1.00539700      -1.42637800       0.28427100
N       -0.01435700      -0.52336400       0.34152400
N       -2.27523600      -1.54909200       0.89571200
C       -3.13111500      -0.47577100       1.08163400
O       -4.21508200      -0.65506400       1.68893400
C       -2.77453200       0.86522400       0.57011500
C       -1.87436700       1.36565500      -0.02859600
C       -1.75777200       2.66071200      -0.40129700
C       -2.73731000       3.45249100      -0.07040300
S       -3.91948300       2.27746700       0.84010700
C       -2.68219100      -2.89766200       1.34168600
C       -2.28426000      -3.95540500       0.37883600
C       -1.51541000      -3.51690600      -0.81388600
C        2.46657300       1.00065700      -0.00347800
21
Properties=species:S:1:pos:R:3 energy=0.6467971530249109 pbc="T T T"
N       -5.47550800       0.89836800      -1.23445000
C       -4.66519000       0.24664400      -0.69722900
C       -3.68149700      -0.57453000      -0.04556200
C       -4.11727700      -1.69467300       0.62704800
C       -3.20701300      -2.52345300       1.27474800
C       -1.88655200      -2.17664500       1.21080500
C       -1.44467000      -1.06181700       0.54237900
C       -2.35587800      -0.25258100      -0.09277600
C       -1.90487000       0.97338400      -0.83208000
N       -0.46929100       1.07268500      -0.72168300
C       -0.11772900       1.17153200       0.66825600
C        1.34966500       1.25280500       0.92708700
C        2.16770200       0.33863500       0.03683600
C        1.21633100      -0.69814100      -0.52486500
C        0.12828800      -0.06565300      -1.36696100
C        3.17594600      -0.35337200       0.87478600
C        4.46560600       0.35356600       1.06973000
O        5.52153700      -0.53110000       0.81864200
C        4.64699700       1.50825100       0.10120700
C        4.00709800       1.03007500      -1.19255700
O        2.64630600       1.08601900      -1.00396900
21
Properties=species:S:1:pos:R:3 energy=1.0 pbc="T T T"
C       -4.98430200      -2.98821000      -0.74225200
O       -3.73586400      -2.37456400      -0.51782100
C       -3.59704700      -1.01447000      -0.30643900
C       -4.73863700      -0.24274100      -0.31931000
C       -4.62831700       1.12717700      -0.10960700
C       -3.38944200       1.66928200       0.10345100
C       -2.26546400       0.87065700       0.11052400
C       -2.34475100      -0.49358400      -0.09498200
C       -1.14233100      -1.32606100      -0.08427400
N        0.06884400      -0.61369400       0.15033100
C        0.09631600       0.07145200       1.40600000
C        1.53431500       0.39648300       1.74526000
C        2.40049200       0.54025400       0.51971300
C        1.65933500       1.02472300      -0.68450500
C        0.34096000       0.34316400      -0.89530600
C        3.44152200       1.61512200       0.86277900
C        4.64944100       1.44689000      -0.02629900
O        5.55017500       0.62962200       0.65686700
C        4.21035700       0.68791700      -1.26148000
C        3.81952900      -0.69298400      -0.83395600
O        3.05487100      -0.67643600       0.30844700
21
Properties=species:S:1:pos:R:3 energy=1.0 pbc="T T T"
C       -5.92182100       1.03086900       3.80833500
C       -4.58358100       0.83687000       3.15658600
N       -3.41550200       1.04398100       3.82284700
N       -2.47584700       0.77553500       2.93136600
C       -3.01262700       0.42014600       1.77141300
C       -2.26069300       0.05052500       0.55011100
C       -1.32442800       1.16155200       0.11869000
C       -0.36566500       0.38578600      -0.76124300
N       -0.21524000      -0.90411700      -0.16165600
C        1.06417200      -0.95524100       0.51947400
C        2.17893000      -0.72679000      -0.44097300
C        2.78574400      -1.76824200      -1.11290200
C        3.81783600      -1.55591400      -2.00209800
C        4.29178900      -0.28262500      -2.26008600
C        5.37103600      -0.07988700      -3.19243100
N        6.23136000       0.08849500      -3.96188900
C        3.68363700       0.75715800      -1.58718500
C        2.65040200       0.54429300      -0.69704400
C       -1.27983900      -1.07733800       0.80198200
O       -4.31865300       0.46371100       1.92921400
H       -2.90101000      -0.20876800      -0.29399700
20
Properties=species:S:1:pos:R:3 energy=1.0 pbc="T T T"
O       -1.90000600       1.67692300       2.31950100
C       -1.99925300       0.99522700       1.21542100
C       -3.22255400       0.29875000       0.95942200
C       -3.36117600      -0.29265100      -0.33001800
C       -4.47366600      -0.96924700      -0.71761000
N       -5.50713200      -1.10000200       0.15819300
C       -5.39794800      -0.56418000       1.36578800
C       -4.29025800       0.12886000       1.79031800
N       -0.90555600       0.99744200       0.37341900
C       -0.96995200       0.09846000      -0.84350200
C        0.38960300      -0.59851000      -0.56319000
C        1.20303200       0.69441900      -0.68695700
O        2.43786200       0.55730900      -0.07082200
C        3.48512800      -0.23518600      -0.48568500
C        4.83812500       0.10040900      -0.05539500
C        5.82366400      -0.73256600      -0.46735200
C        5.70237500      -1.82039200      -1.24025800
C        4.43364600      -2.17328500      -1.68844000
C        3.34186900      -1.33741000      -1.26787800
C        0.37219900       1.64983900       0.23504300
25
Properties=species:S:1:pos:R:3 energy=1.0 pbc="T T T"
C        6.74618600       2.42284500      -1.07072900
O        5.95433400       1.90327700      -0.01765800
C        4.72794200       1.33940300      -0.29273900
C        4.26194500       1.27633200      -1.59319300
C        3.02434700       0.70764300      -1.87334800
C        2.26940000       0.20995700      -0.85139500
C        2.74776100       0.28146800       0.43000100
C        1.94091800      -0.25126800       1.52776500
N        0.68378500      -0.81435200       1.08522300
C        0.87507700      -1.90919500       0.15403400
C       -0.34532400      -2.79950400       0.27600200
C       -1.13711500      -2.17126100       1.38668000
C       -2.11319000      -1.19860700       0.84360400
N       -3.41637700      -1.12842800       1.11681700
C       -4.00427600      -0.11081100       0.43875300
C       -5.29796300       0.37417700       0.37236900
C       -5.59233300       1.45511700      -0.43159800
C       -4.58183600       2.04128200      -1.16404200
C       -3.28991100       1.56584600      -1.10495100
C       -3.00851700       0.48135600      -0.29484300
N       -1.86167400      -0.20649200      -0.02642400
C       -0.03057000      -1.45658600       2.17250600
C        3.97143200       0.84117700       0.72746300
H       -1.58587900      -2.88814500       2.08154300
H       -0.93816100       0.03477000      -0.45651600
27
Properties=species:S:1:pos:R:3 energy=0.4599644128113878 pbc="T T T"
F        6.74595900       0.75310300       0.96456800
C        5.86242100      -0.14622300       0.46179000
C        6.38047100      -1.38074200       0.08847900
C        5.55432700      -2.35332200      -0.43157300
C        4.21477500      -2.05842700      -0.56496600
C        3.67844100      -0.84747300      -0.20393700
C        2.24910400      -0.60348000      -0.37305700