22
Properties=species:S:1:pos:R:3 energy=4.787491742782046 pbc="T T T"
C        5.38988500       2.49206000       0.19199300
C        5.77960600       1.18232300      -0.01619500
C        4.83493100       0.19996500      -0.11108600
C        3.50722500       0.50196500      -0.00178300
N        2.58023900      -0.56789900      -0.11020300
C        1.18081300      -0.38868500      -0.01496800
N        0.64231000       0.82704500       0.18719600
C       -0.69267500       1.01231900       0.28011800
C       -1.57361300      -0.04281100       0.17150200
C       -3.02413700       0.13251700       0.26872700
C       -3.58236800       0.91892000       1.25440500
N       -4.91944800       1.09694300       1.36569500
C       -5.72989400       0.47107900       0.46532800
N       -5.23173100      -0.30521600      -0.51256700
C       -3.90064400      -0.47519000      -0.61380000
C       -1.06192900      -1.29712700      -0.03489900
C        0.32393200      -1.46087500      -0.12723500
O        0.58386500      -2.80866800      -0.33465200
C       -0.57446900      -3.45182900      -0.84160600
C       -1.67538600      -2.63336200      -0.19735200
C        3.11136400       1.79268100       0.20396800
C        4.03212400       2.80384500       0.30419700
24
Properties=species:S:1:pos:R:3 energy=4.71760561531788 pbc="T T T"
C       -3.96242200       2.03978600       2.99804800
O       -4.91306100       1.22846700       2.36518500
C       -4.58338300       0.35921800       1.34054900
C       -5.58010100      -0.41502000       0.75960500
C       -5.25081200      -1.28309100      -0.26365200
C       -3.96144100      -1.40608300      -0.72807400
C       -2.97799400      -0.64198700      -0.15468900
C       -1.57259500      -0.72054000      -0.60088200
C       -1.11168600      -1.53859500      -1.60386200
N        0.19568000      -1.37306700      -1.76093400
C        0.56063700      -0.44833300      -0.85492000
N       -0.52014900      -0.03501300      -0.13020000
N        1.91911700      -0.01169700      -0.73120200
C        2.42827400       0.41976700       0.51827700
O        1.71160900       0.43122200       1.53899000
C        3.81488200       0.85142000       0.58191500
C        4.49696400       1.30469700       1.69608300
C        5.78561800       1.60219800       1.28920700
O        5.88600000       1.34559200       0.00002600
C        4.73321200       0.89942100      -0.44516800
C        2.73995500      -0.02532900      -1.90290500
C        2.24767600      -0.88955600      -3.00539100
C        1.23690600      -1.90947000      -2.60793300
C       -3.32288700       0.21599200       0.86166500
24
Properties=species:S:1:pos:R:3 energy=4.050044303325521 pbc="T T T"
N        6.23439600       2.51716200      -2.21439300
C        5.54884400       1.67960200      -1.76336400
C        4.71911000       0.65618100      -1.19115600
C        5.24737000      -0.22172600      -0.27287800
C        4.46843800      -1.20978500       0.28717600
C        3.12561800      -1.32450600      -0.07949800
C        2.60755800      -0.44919200      -0.99208600
C        1.17920300      -0.51891300      -1.42598400
N        0.37753100       0.29656200      -0.56536400
C        0.40730300      -0.07834600       0.81421000
C       -1.01478600      -0.03990400       1.32925700
C       -1.06916300       0.66813600       2.66532900
O       -2.35457100       0.71836900       3.15970600
C       -1.73422700       0.69502000       0.24279200
C       -3.18529300       0.39526000       0.19079900
C       -3.68808600      -0.87467400       0.14003700
C       -5.07423600      -1.01526100       0.09447100
C       -5.90149300       0.06962100       0.10010200
C       -5.35492400       1.33578100       0.15207500
N       -4.02227800       1.44925300       0.19527400
C       -1.01758000       0.15617000      -1.00416800
C        3.39488900       0.52950700      -1.54139500
H       -1.37031400      -1.08796900       1.39996000
H       -1.52330800       1.76244800       0.27910100
18
Properties=species:S:1:pos:R:3 energy=3.933784497209659 pbc="T T T"
N        4.66840800       2.14693000       0.31675100
C        3.99236200       1.23132300       0.06199600
C        3.16938400       0.10459600      -0.23383300
C        3.56916500      -0.83523400      -1.16589800
C        2.78082200      -1.92456100      -1.45652800
C        1.57258600      -2.08378600      -0.80943500
C        1.17371600      -1.14805200       0.11909300
C       -0.13809200      -1.29816400       0.83814000
N       -1.14021500      -0.62795700       0.05912000
C       -0.81555900       0.75343900      -0.07996400
C       -1.88336800       1.59754900      -0.68981400
O       -2.97517200       0.87021900      -1.15627600
C       -3.91426500       0.87046200      -0.11824600
C       -3.20776000       0.24296500       1.06949800
O       -2.38631200       1.18322800       1.72656900
C       -2.42597200      -0.92029800       0.56353100
C        1.96289600      -0.06522000       0.40449200
H       -4.00262300      -0.09744000       1.77840100
22
Properties=species:S:1:pos:R:3 energy=4.787491742782046 pbc="T T T"
C       -3.79321100      -0.88961800      -2.04318400
N       -2.48475000      -0.55694000      -1.53570000
C       -1.65886300       0.11061900      -2.50988300
C       -2.50186600       0.07694700      -0.25885500
C       -1.07074100       0.36507900       0.14439600
N       -0.56443600      -0.98347200       0.40399400
C        0.80072500      -1.36184000       0.42063500
O        1.10024900      -2.54948100       0.65596100
C        1.86818800      -0.39926500       0.16972000
C        3.18286500      -0.77647600       0.18837600
C        4.20066400       0.12617400      -0.04769600
C        3.89631700       1.44575800      -0.31040600
C        4.93058400       2.42514000      -0.56333800
N        5.76955900       3.19650500      -0.75556100
C        2.55946100       1.79857700      -0.32292300
C        1.53590000       0.91680500      -0.09096600
C       -1.66465000      -1.89296200       0.64533000
C       -2.85043000      -0.96731700       0.81122400
C       -2.72638000      -0.33881000       2.18683300
O       -3.56665500       0.73978600       2.36154100
H       -3.15285200       0.95566800      -0.18683600
H       -3.80967800      -1.44087500       0.63733700
24
Properties=species:S:1:pos:R:3 energy=4.787491742782046 pbc="T T T"
C        5.15174200       2.80076000      -0.79842100
O        4.20167800       1.81701700      -1.07980400
C        3.89524300       0.77033300      -0.24145500
C        4.54822100       0.65679600       0.95782600
C        4.23435900      -0.39866800       1.79536900
C        3.27739200      -1.33024800       1.43639400
C        2.61341800      -1.22397700       0.22860500
C        1.57636800      -2.20914600      -0.19144300
N        0.31240700      -1.74918500       0.27448900
C       -0.79672300      -2.58961800      -0.04921600
C       -1.98710900      -1.68419000      -0.30697600
C       -3.21876700      -2.16202500       0.43048800
O       -4.24358700      -1.25626600       0.11896600
C       -1.49562500      -0.36102600       0.19078200
C       -2.20005700       0.79517900      -0.39119600
C       -2.77892100       1.70060400       0.48902700
C       -3.46279600       2.81835100       0.06731500
C       -3.57568600       3.04482100      -1.27800200
C       -2.99208500       2.13078800      -2.12901500
N       -2.32472900       1.03891300      -1.68334700
C       -0.02678300      -0.41017100      -0.23371300
C        2.95503200      -0.15586000      -0.58023200
H       -2.14547800      -1.68194200      -1.40931600
H       -1.51751400      -0.36123900       1.27849700
25
Properties=species:S:1:pos:R:3 energy=4.787491742782046 pbc="T T T"
C       -4.86247100      -1.06726400      -1.04934200
C       -4.07359100       0.18595600      -1.02515600
C       -4.72715900       1.38738800      -1.32489900
C       -4.08530500       2.60692500      -1.33018600
C       -2.75343300       2.60627400      -1.02503900
C       -2.05645200       1.46729000      -0.72315400
C       -2.73596400       0.24233300      -0.72581600
C       -1.97894800      -0.94227400      -0.40446800
N       -2.35326600      -2.22214800      -0.33029700
N       -1.31185800      -3.00361000       0.00578600
C       -0.23081900      -2.24641100       0.15873500
N        1.06733300      -2.50499700       0.48827000
C        1.92175000      -1.47706500       0.55548900
C        1.55840600      -0.15540400       0.30718700
C        2.56534000       0.88274700       0.40803200
C        2.27719100       2.20512700       0.17683000
C        3.24476300       3.19324000       0.27490300
C        4.53800100       2.87961800       0.61018700
C        4.84029600       1.56204200       0.84402500
C        3.85774800       0.57412800       0.74249900
C        4.26959600      -0.77554900       1.00540800
N        4.61959800      -1.85833200       1.22315400
N        0.29163100       0.06215800      -0.01004000
C       -0.60760900      -0.95047900      -0.08943200
H       -3.27477700      -2.65169200      -0.48765100
21
Properties=species:S:1:pos:R:3 energy=4.787491742782046 pbc="T T T"
O        2.69804500      -2.20722800       1.64866400
C        2.10391300      -1.17979300       1.21750700
C        2.84339200      -0.30508100       0.32093800
C        2.21792800       0.81846200      -0.16089100
C        2.88925800       1.66626200      -1.01055700
C        4.18394800       1.35393000      -1.35314800
N        4.77231400       0.25821400      -0.87406500
C        4.14792300      -0.57358000      -0.05500900
N        0.78534700      -0.86057600       1.56571600
C       -0.05197900      -1.64364200       2.44290100
C       -0.91036800      -0.56706000       3.07661800
C       -1.29728400       0.23635200       1.82717700
O       -2.12555800      -0.61868200       1.05929600
C       -2.67104300      -0.22238100      -0.15696600
C       -3.46472400      -1.12383400      -0.83202500
C       -4.02657000      -0.75904800      -2.05263100
C       -3.82269000       0.47736700      -2.62337900
C       -3.02309300       1.36773100      -1.93009600
F       -2.83348100       2.57986900      -2.50700000
C       -2.46155400       1.01391200      -0.71813500
C        0.04627700       0.28880700       1.11508500
22
Properties=species:S:1:pos:R:3 energy=3.9512437185814275 pbc="T T T"
O        1.72946500       1.02477800       1.21302000
C        2.24016900       0.49066500       0.19829500
N        1.34070700      -0.20810800      -0.66565000
C       -0.05399300      -0.29836200      -0.39916200
C       -0.66791100       0.26741700       0.69721100
N       -2.01444400       0.11319200       0.84592000
C       -2.76179300      -0.56774800      -0.03422300
C       -4.21172700      -0.72622400       0.13819800
C       -4.96303600      -1.42970800      -0.77722500
C       -6.33339400      -1.55325500      -0.57179100
C       -6.93234400      -0.97451800       0.54118400
C       -6.17918100      -0.26213100       1.47045600
C       -4.82706800      -0.15401700       1.24546000
N       -2.18899800      -1.12553400      -1.10551200
C       -0.84878400      -0.98979200      -1.28224000
C        3.66829900       0.58177900      -0.07674700
C        4.24852100       0.00354700      -1.18323700
C        5.60657300       0.14295000      -1.35950000
C        6.38966900       0.84013200      -0.46389000
C        5.80288700       1.42540200       0.65591900
F        6.51277200       2.11972300       1.56853800
C        4.44361100       1.27981000       0.82252900
24
Properties=species:S:1:pos:R:3 energy=4.787491742782046 pbc="T T T"
C        6.96946900      -1.09012600      -1.51942200
O        6.61375600      -1.77502700      -0.36954000
C        5.22440100      -1.88328600      -0.29430600
C        4.59782400      -0.51065900      -0.26166800
N        3.17225900      -0.60738000      -0.18449000
C        2.30449000       0.51056700      -0.13859800
N        2.81634300       1.74791800      -0.16747100
C        2.00106800       2.83806100      -0.12442000
N        2.61975100       4.11609600      -0.15909500
N        0.64522900       2.68888700      -0.05094600
C        0.08965400       1.46558300      -0.01972500
C        0.92148000       0.36828300      -0.06365500
C        0.57164500      -1.04729800      -0.04318000
C       -0.60623200      -1.40190100       0.78357600
N       -1.86060600      -0.87211600       0.29387800
C       -3.06490400      -1.47010400       0.71600000
O       -3.04401100      -2.45122100       1.50808400
C       -4.35542800      -0.92645100       0.21335500
C       -5.55810300      -1.47924200       0.59916000
S       -6.68842600      -0.51866000      -0.23163000
C       -5.58892100       0.51934100      -1.01378800
N       -4.41324700       0.08178700      -0.60244400
C       -1.99031500       0.24669400      -0.61490900
C       -1.37717600       1.45025300       0.05944400
25
Properties=species:S:1:pos:R:3 energy=4.787491742782046 pbc="T T T"
N       -6.57252200       2.75523000       0.05400900
C       -5.83488200       1.86986300       0.06481800
C       -4.89466400       0.77039400       0.06148200
C       -5.27196000      -0.53037800       0.30183400
C       -4.35803400      -1.56618100       0.29406000
C       -3.01826500      -1.32744000       0.04157000
C       -2.05228900      -2.44987900       0.03713500
N       -0.72204700      -1.91081500      -0.25487900
C       -0.32765200      -0.93227500       0.75829400
C        0.21091600       0.29816700       0.05938000
C        1.32731500      -0.12588000      -0.90165400
C        0.68659700      -1.01147700      -1.96102900
C       -0.75066200      -1.26024000      -1.55960100
C        1.89913900       1.11882200      -1.48810200
C        3.21344400       1.49778800      -0.93109800
O        3.79074900       2.49398000      -1.41897700
C        3.85692900       0.76793800       0.14978000
C        4.96562400       1.24681500       0.82780500
C        5.55441200       0.51986400       1.85713300
C        5.03236300      -0.70409600       2.21886300
C        3.92834000      -1.15771500       1.52784600
C        3.33104600      -0.44934900       0.50348300
O        2.22573800      -0.90946000      -0.18428100
C       -2.66181300      -0.01708700      -0.19667800
C       -3.55782300       1.01341100      -0.19111400
22
Properties=species:S:1:pos:R:3 energy=2.917770732084279 pbc="T T T"
C       -4.83917600       0.21952800      -0.29405900
C       -3.64563900       1.14471900      -0.45153400
C       -3.82687400       2.43134800      -0.79839500
C       -2.72421100       3.21529300      -0.92547300
S       -1.45664800       2.13973400      -0.55799600
C       -2.36174100       0.72875200      -0.25428800
C       -1.89225900      -0.62118900       0.12903300
N       -2.61074200      -1.71892700       0.36429600
N       -1.74331400      -2.69012300       0.67686200
C       -0.48771000      -2.23047200       0.64468200
N        0.73528800      -2.74466800       0.86323500
C        1.84824200      -2.00357900       0.74803700
C        1.81420500      -0.66891700       0.39894900
C        3.01453700       0.14053800       0.27213900
C        4.25163600      -0.39303900       0.49674200
C        5.36027300       0.41768900       0.36330000
C        5.25880900       1.76244300       0.00701200
C        4.00685800       2.28221500      -0.21504100
C        2.91110000       1.45807100      -0.07721800
N        0.57498400      -0.15828200       0.18018600
C       -0.54221300      -0.89718900       0.29452200
H       -3.64540600      -1.81394500       0.31709900
24
Properties=species:S:1:pos:R:3 energy=4.673762977453703 pbc="T T T"
N        6.37969400      -2.66402400      -0.41375000
C        5.50354700      -1.92347900      -0.23409400
C        4.42239100      -0.98821500      -0.00998400
C        3.38491100      -0.83728300      -0.90572000
C        2.34144500       0.04135400      -0.72516400
C        2.31063900       0.82188100       0.40292200
C        1.21954700       1.80107300       0.68167100
N        0.20025600       1.07739900       1.42522600
C       -0.92513800       1.88599700       1.77213500
C       -2.03347300       1.54932500       0.80022100
C       -2.35311100       2.83544200       0.04175200
O       -2.75535800       3.77333200       0.99653300
C       -1.47642000       0.49305800      -0.11810300
C       -2.39240900      -0.66204400      -0.28067500
C       -2.81861900      -1.32364200       0.84938100
C       -3.66839600      -2.40825400       0.82497200
N       -4.08961200      -2.82085600      -0.40143600
C       -3.69406700      -2.19942800      -1.52238100
C       -2.83978200      -1.10866800      -1.50165000
C       -0.24926100      -0.01178900       0.61340500
C        3.32959900       0.69484200       1.31420900
C        4.36346600      -0.19125400       1.11219000
H       -2.94300600       1.23860400       1.32184300
H       -1.21684300       0.92662800      -1.10452500
22
Properties=species:S:1:pos:R:3 energy=4.787491742782046 pbc="T T T"
C        6.79540500      -1.80257900       0.10873700
O        6.29723600      -0.54875300       0.59869000
C        5.01463500      -0.15525100       0.12528900
C        4.52425700       1.08540900       0.56570600
C        3.27559500       1.47286300       0.18572300
C        2.52780600       0.65033700      -0.61691400
C        1.07538800       1.09202700      -0.85724900
N        0.54980800       1.46194000       0.37560500
C        0.52202500       0.67228400       1.56657300
C       -0.94547100       1.32054400       1.76527000
O       -1.83281100       0.28339100       1.90829400
C       -2.80409400      -0.13298700       1.03573800
C       -2.78514200       0.52005200      -0.21487500
C       -3.73358700       0.16275000      -1.16607700
C       -4.62483700      -0.80329300      -0.84805400
O       -5.52054000      -1.18251700      -1.85923400
C       -6.49955400      -2.21198100      -1.58481300
C       -4.69631300      -1.47801900       0.35502600
C       -3.73654500      -1.09966200       1.29867800
C       -0.66162200       2.18177700       0.62149700
C        2.97798000      -0.52848900      -1.06139600
C        4.28038100      -0.95984200      -0.68587400
23
Properties=species:S:1:pos:R:3 energy=4.787491742782046 pbc="T T T"
C        4.79499200       0.88027300      -2.38152500
O        4.50915600      -0.10729700      -1.42039500
C        4.38360800       0.53955900      -0.20448700
C        4.07674500      -0.37002100       0.93793300
N        2.84853800      -1.10246500       0.78903300
C        1.57320600      -0.45884500       0.65100400
O        1.62543100       0.78190900       0.67161900
C        0.36315000      -1.25289500       0.50344400
N        0.38299000      -2.63277500       0.48945600
C       -0.89280500      -3.02340700       0.33909300
S       -1.91923600      -4.37606900       0.20587900
C       -3.40776500      -3.55966900       0.04542700
C       -3.00828700      -2.27143900       0.10625000
N       -1.73019600      -1.99634500       0.25552100
C       -0.94055200      -0.86184300       0.35910300
C       -1.46639300       0.49497100       0.31503100
C       -2.84306500       0.69908400       0.16003500
C       -3.44578000       1.91208100       0.10549200
C       -2.65956600       3.04625900       0.20883500
C       -1.28162900       2.92311100       0.36493600
C       -0.44510400       4.08396000       0.47434100
N        0.23373400       4.99850700       0.55031100
C       -0.75117200       1.65335600       0.41053900
25
Properties=species:S:1:pos:R:3 energy=4.787491742782046 pbc="T T T"
O        2.65759000       0.35349100       1.65200300
C        3.03715900       0.14437700       0.49329000
N        2.08959000      -0.07739000      -0.51628500
C        0.69464400      -0.08078400      -0.30743600
N        0.22828600       0.14011500       0.92775900
C       -1.09134000       0.15317200       1.21102000
C       -2.01094600      -0.06248200       0.22887400
C       -3.42121100      -0.03762000       0.58913100
C       -3.79390500      -0.71522100       1.73346800
C       -5.10500400      -0.75402800       2.16330200
C       -6.03272500      -0.07858800       1.38958600
C       -5.70820300       0.60324700       0.25236300
F       -6.63359000       1.25547400      -0.48641000
C       -4.37723100       0.61704300      -0.14473100
C       -1.57729300      -0.29312200      -1.05215700
C       -0.21720800      -0.30209100      -1.32050000
O       -0.07420900      -0.55668600      -2.67976400
C       -1.27848500      -0.41529500      -3.37592900
C       -2.34104500      -0.55070500      -2.28098900
C        4.46522600       0.12241700       0.14619800
C        5.41308300       0.33718100       1.11969900
C        6.78106400       0.32424500       0.82980100
N        7.16714100       0.09589400      -0.43148100
C        6.24154900      -0.11415100      -1.38382600
C        4.88706400      -0.10849300      -1.13433000
22
Properties=species:S:1:pos:R:3 energy=4.787491742782046 pbc="T T T"
O        6.77138500      -0.17479900      -0.84613900
C        6.07176700       0.55162300      -0.10751800
O        6.67546100       1.46837900       0.72745600
C        4.62318000       0.43878600      -0.12033400
C        3.99082600      -0.46884900      -0.94535900
C        2.61825700      -0.60539200      -0.98471800
C        1.81182200       0.17578300      -0.18507700
C        0.34341900       0.04150600      -0.21471800
C       -0.22829700      -1.18259400      -0.47257000
C       -1.59603200      -1.30789900      -0.50062100
C       -2.42340600      -0.23998300      -0.27729100
N       -3.82608300      -0.31396600      -0.29403900
C       -4.52071700       0.90950900      -0.04314200
C       -4.47627800       1.13805500       1.46717500
C       -5.31042300       0.07002400       2.11097900
C       -4.80862500      -1.31624900       1.89066200
C       -5.30313300      -1.94126700       0.61246000
C       -4.37857400      -1.60511700      -0.56017500
N       -1.79837200       0.94233800      -0.02822100
C       -0.48264100       1.10987900       0.00861400
C        2.43139000       1.08655200       0.64375300
C        3.81507500       1.22368200       0.68296300
24
Properties=species:S:1:pos:R:3 energy=4.787491742782046 pbc="T T T"
C        6.78162000       1.52680700      -0.20587800
O        5.70324500       0.64808100      -0.00130200
C        4.42138600       1.02840800      -0.37580000
C        4.16869500       2.27024800      -0.95545900
C        2.89317600       2.62710700      -1.31874400
C        1.87598200       1.72350000      -1.09337300
C        2.09811300       0.48815300      -0.52152700
C        0.98115800      -0.42080800      -0.30898100
C        1.05689600      -1.69531200       0.25521200
N       -0.16812500      -2.23534800       0.29243200
C       -1.02427100      -1.32036400      -0.24101700
N       -0.32037400      -0.24272700      -0.59510500
N       -2.39637300      -1.67139000      -0.32052300
C       -3.41157300      -0.75953100      -0.10673200
O       -4.60667700      -1.19774000      -0.30293700
C       -3.24495400       0.63339600       0.31748500
C       -4.29128300       1.52480300       0.50681500
C       -3.98729600       2.74176400       0.90333300
C       -2.67686400       3.06242200       1.10582500
S       -1.90443800       1.59448400       0.71828500
C       -2.69891500      -3.08848600      -0.62797800
C       -2.00470900      -3.88774500       0.41383300
C       -0.62044700      -3.50915500       0.76451500
C        3.37602800       0.15943300      -0.17004900
21
Properties=species:S:1:pos:R:3 energy=4.385769620952716 pbc="T T T"
N       -3.91083200       3.23478000      -0.75717700
C       -3.79388200       2.17107600      -0.29416300
C       -3.66817700       0.84957300       0.26553900
C       -4.66482500       0.29191100       1.04174700
C       -4.49127200      -0.97768500       1.55235000
C       -3.33051200      -1.66777600       1.28128200
C       -2.34894300      -1.09725200       0.50675500
C       -2.49839000       0.16717500      -0.01380700
C       -1.42438800       0.79441600      -0.86342900
N       -0.34066000      -0.14007600      -0.97845100
C        0.73070200       0.34419200      -1.76361800
C        2.01306000       0.60409300      -1.10815600
C        2.33797200      -0.24072300       0.07684600
C        1.11681300      -0.16904700       1.00519400
C       -0.00922300      -0.78170400       0.24678000
C        3.52059300       0.27385500       0.83160500
C        4.79378300       0.09954200       0.04580800
O        4.98828100       1.13654300      -0.87541600
C        4.81544200      -1.23280800      -0.65417500
C        3.71397900      -2.09144100      -0.09079700
O        2.45047700      -1.56864400      -0.30516200
21
Properties=species:S:1:pos:R:3 energy=4.787491742782046 pbc="T T T"
C       -4.44275900      -2.96560500      -0.32823300
O       -3.32562100      -2.10933200      -0.45551400
C       -3.43332100      -0.83646900       0.14698300
C       -4.56749400      -0.46038400       0.81853500
C       -4.69381700       0.77356800       1.41242700
C       -3.62648300       1.64534800       1.31419400
C       -2.49080600       1.28120600       0.64716900
C       -2.38768200       0.05051400       0.06508500
C       -1.13946500      -0.33083500      -0.65978400
N       -0.22154600       0.76074500      -0.59541900
C        0.16396300       1.15315200       0.71883500
C        1.19753900       0.16178100       1.24462100
C        2.39649400       0.22914700       0.31870300
C        1.96907600      -0.16006500      -1.08365800
C        0.82905700       0.72950000      -1.55848300
C        3.45779300      -0.75263400       0.76864000
C        4.58203900      -0.68443000      -0.23482300
O        4.59935300      -1.93949500      -0.88827100
C        4.37842000       0.34596600      -1.29221200
C        3.76641800       1.61910900      -0.81421600
O        2.98884000       1.48921200       0.31465200
21
Properties=species:S:1:pos:R:3 energy=4.787491742782046 pbc="T T T"
C       -5.56003100      -1.43227500       0.75042300
C       -4.36251400      -0.57251400       0.51770300
N       -3.76366200       0.20264200       1.45289800
N       -2.75075000       0.79335500       0.84020900
C       -2.70514300       0.40756300      -0.44360300
C       -1.72844100       0.83541200      -1.46617000
C       -1.72265300       2.35771300      -1.58420800
C       -0.88186000       2.74464700      -0.38706400
N        0.18386600       1.79412700      -0.43051700
C        0.80752700       1.61337100       0.88787400
C        1.90894000       0.59856000       0.72676100
C        2.18393200       0.01508900      -0.49434400
C        3.19534700      -0.92032000      -0.65498200
C        3.95646700      -1.28583000       0.43472800
C        5.00464900      -2.25834600       0.25710200
N        5.83039100      -3.04774500       0.11744200
C        3.69030800      -0.70933400       1.65872200
C        2.68148700       0.21907000       1.80246800
C       -0.33576800       0.56077800      -0.94610200
O       -3.70434200      -0.42724200      -0.60711800
H       -1.92775100       0.36280700      -2.43222200
20
Properties=species:S:1:pos:R:3 energy=4.787491742782046 pbc="T T T"
O        3.06152200      -1.16895300      -1.87868100
C        2.28893600      -0.54726500      -1.11980700
C        2.76209400      -0.16586800       0.18631400
C        4.03514800      -0.46025200       0.63212100
C        4.38335200      -0.04011700       1.91734900
N        3.52015800       0.62550600       2.69787100
C        2.26837900       0.92899500       2.29210700
C        1.91008300       0.51878000       1.02097400
N        0.99091000      -0.23750700      -1.55203700
C        0.38855800      -0.56145800      -2.83934600
C       -0.56915700       0.57667800      -3.06496300
C       -1.10642000       0.84550900      -1.68793800
O       -2.25025800       0.04188800      -1.48172900
C       -2.95893400       0.07868100      -0.29483400
C       -4.07147900      -0.67971900      -0.04824800
C       -4.72290900      -0.57344600       1.18629200
C       -4.27491900       0.27886100       2.17038200
C       -3.15461800       1.03944100       1.91591000
C       -2.52116600       0.92773200       0.69886700
C        0.02071900       0.47796100      -0.75060300
25
Properties=species:S:1:pos:R:3 energy=4.787491742782046 pbc="T T T"
C        7.52184300      -0.48774200       0.86447000
O        6.41323000       0.15189400       1.46724300
C        5.15540700      -0.00617500       0.85860800
C        5.00237500      -0.75553100      -0.28324000
C        3.77252900      -0.91211400      -0.88129900
C        2.69215300      -0.28949200      -0.29493000
C        2.80244100       0.47643800       0.85833200
C        1.59090900       1.11627900       1.43052500
N        0.43831000       0.79619500       0.61657700
C        0.58823000       1.25637400      -0.73063500
C        0.16394000       0.14238900      -1.64337800
C       -0.50203600      -0.82700400      -0.72068200
C       -1.93030200      -0.37786300      -0.55383800
N       -3.04429900      -1.09143300      -0.78854800
C       -4.14698900      -0.37148400      -0.53196400
C       -5.50763200      -0.59166000      -0.59535600
C       -6.43683300       0.37660800      -0.25519600
C       -5.96564400       1.61137500       0.16388300
C       -4.60814600       1.84744500       0.23275000
C       -3.70904800       0.86147500      -0.11320900
N       -2.34456900       0.82958600      -0.13626100
C        0.22181500      -0.62897900       0.57543800
C        4.04656800       0.59721700       1.40831600
H       -0.47970100      -1.86927500      -1.08192200
H       -1.73455300       1.63495700       0.13431600
27
Properties=species:S:1:pos:R:3 energy=4.08260930600368 pbc="T T T"
F        6.77053200       1.73329700       0.68769100
C        5.89065600       0.89326000       0.08207300
C        6.29112600       0.13026700      -0.98692800