32
Properties=species:S:1:pos:R:3 energy=-0.1830128807067285 pbc="T T T"
C        7.00921800      -2.35334000      -1.68660100
C        7.17598000      -1.22080500      -0.74189000
O        8.34682100      -0.89446900      -0.36444100
C        6.01211700      -0.48154200      -0.24453100
C        6.07556600       0.58739300       0.63971300
C        7.30989200       1.18012100       1.24137800
N        4.82066700       1.03047600       0.88780700
C        3.97254700       0.25977200       0.17606200
C        2.52588800       0.42996600       0.19355000
O        1.83438500      -0.34120300      -0.53833100
N        1.88818400       1.41618400       0.99408700
C        0.47258200       1.48488300       0.93141800
C       -0.18538100       2.41099000       1.69829500
C       -1.56503100       2.53774400       1.69610100
C       -2.28483300       1.67960300       0.87526900
C       -1.66538100       0.73689400       0.09014300
S       -2.50815000      -0.37431000      -0.96339700
O       -1.61642500      -0.70338500      -2.13216200
O       -2.80499900      -1.81101800      -0.12803900
N       -3.98196100       0.31673600      -1.53695000
C       -5.19364300      -0.34818700      -1.21768300
C       -5.76747200      -1.27310300      -2.04794300
C       -6.95950300      -1.88887100      -1.66880800
C       -7.55228100      -1.56102700      -0.45898600
C       -6.98851700      -0.63644900       0.38232700
C       -7.57231800      -0.27030000       1.64774500
N       -8.05149300       0.02845000       2.67956500
C       -5.80350900      -0.04196800      -0.02241100
C       -0.28314600       0.65446000       0.13156600
C        4.68901800      -0.66827200      -0.52051000
C        4.13660300      -1.70293000      -1.41967200
H        4.51457400       1.81750500       1.50539800
26
Properties=species:S:1:pos:R:3 energy=-1.847902097677043 pbc="T T T"
C       -4.21363200      -2.51785100      -1.28638700
C       -3.10472000      -1.70785700      -1.95573700
C       -2.52034400      -0.85030700      -0.86097400
N       -1.29235600      -1.03923600      -0.63405400
C       -0.42098900      -0.42282500       0.30821200
C        0.89789900      -0.44555700      -0.10928500
C        1.93530700       0.08332000       0.62066900
C        3.32631800       0.04543300       0.15333400
O        4.20129400       0.55214800       0.88608200
N        3.71341100      -0.52618200      -1.06251700
C        4.95835800      -0.66365500      -1.67972600
C        6.03701500      -1.41303800      -1.02534000
C        6.55116700      -0.89395300       0.27822300
O        7.11127000       0.38344500       0.15847500
C        8.18337600       0.38496400      -0.73310000
C        1.59371800       0.65630000       1.82651300
C        0.30026100       0.70148500       2.28019200
C       -0.69818900       0.16299500       1.52052700
S       -2.31833000       0.33983200       2.31600600
C       -3.50464200       0.56771100       1.00525900
C       -4.52396800       1.39849300       1.40511600
C       -5.56647300       1.72550900       0.55240600
C       -5.57671600       1.20897800      -0.71059800
Br      -7.01993800       1.67378200      -1.86203200
C       -4.54612600       0.36756500      -1.11827000
C       -3.50296900       0.03700100      -0.27299300
31
Properties=species:S:1:pos:R:3 energy=-1.6424581234622342 pbc="T T T"
C       -6.67573300       2.16337800       2.91993800
C       -6.32233700       1.10079400       1.93735000
C       -6.36406800       1.41349100       0.58854000
C       -6.04277500       0.45349700      -0.35229400
C       -5.68585200      -0.80339500       0.09254400
N       -5.33812600      -1.85853200      -0.79885000
S       -4.28625600      -1.63282900      -2.14009300
O       -4.16974200      -2.95609600      -2.84002400
O       -4.78524400      -0.55638800      -3.07274700
C       -2.67998900      -1.12369700      -1.62152500
C       -2.35660200       0.20719400      -1.48173100
C       -1.09939700       0.60237700      -1.07593900
C       -0.11634000      -0.32057700      -0.79412400
C        1.21405100       0.06203700      -0.36573600
O        2.07950800      -0.80977100      -0.11907700
N        1.61241600       1.42175500      -0.20188600
C        2.96607700       1.70781100       0.23104100
N        3.93926900       0.87562900       0.51262900
C        5.09320400       1.33232400       0.88777000
C        6.25047900       0.45781500       1.22587900
C        7.44888900       0.97316800       1.61669500
C        8.51647200       0.16755500       1.92859900
C        8.35485900      -1.19465500       1.83884300
C        7.15976100      -1.74096500       1.44818000
C        6.11258800      -0.91583800       1.14324100
C        5.22703100       2.70039200       0.96886500
S        3.67615800       3.23650400       0.49754500
C       -0.41904200      -1.65643400      -0.92757100
C       -1.69557400      -2.04748700      -1.33930900
C       -5.64900400      -1.09963000       1.44100000
C       -5.96468000      -0.15942700       2.38893300
27
Properties=species:S:1:pos:R:3 energy=-4.099193896283544 pbc="T T T"
C        6.62255700       1.78881100      -2.29704400
C        7.14978200       0.42977300      -1.88795600
O        6.61823900       0.03794900      -0.63972200
C        5.24091000      -0.09451600      -0.49171000
C        4.36847700       0.14616600      -1.53275400
C        3.00737200       0.00438900      -1.34847700
C        2.45911300      -0.37627200      -0.14306900
C        0.98447200      -0.50614400      -0.02637600
C        0.35807500       0.80266400       0.40405700
N       -1.06686100       0.71223400       0.52659200
C       -1.93068600       0.36697700      -0.55274900
O       -1.38561600       0.13506400      -1.65815900
C       -3.37568200       0.28275800      -0.39879200
C       -4.23848900      -0.04690600      -1.41647400
C       -5.53005300      -0.03655400      -0.93880500
C       -6.75694600      -0.28614000      -1.51537500
C       -7.92821200      -0.20383200      -0.79257300
C       -7.83638400       0.13893600       0.53774400
C       -6.60640500       0.38622700       1.10415400
C       -5.40822400       0.30840700       0.39008600
N       -4.12664200       0.49273800       0.68900800
C       -3.61570700       0.86579900       1.99799100
C        3.32524400      -0.61873900       0.90277900
C        4.69377300      -0.47495900       0.71319800
O        5.52729200      -0.72467300       1.77692500
C        5.10626900      -1.11678600       3.05148800
C        4.34433200      -2.41337300       3.06086400
38
Properties=species:S:1:pos:R:3 energy=-1.5734652519752828 pbc="T T T"
C       -9.30314800       3.10143600      -2.28979900
C       -8.50460900       2.17853200      -1.43983100
C       -8.37556800       0.86988400      -1.83455300
C       -7.64822000      -0.03331300      -1.08921200
C       -7.04318000       0.38001800       0.06520500
S       -6.11501400      -0.73033400       1.03538800
O       -6.65456500      -2.13681500       0.88953200
O       -6.18325600      -0.38063400       2.49323900
N       -4.47953100      -0.67135100       0.47361400
C       -4.12639800      -1.03189400      -0.85192900
C       -5.12400700      -1.44344700      -1.72086700
N       -4.84768700      -1.79957100      -2.99709400
C       -3.58298300      -1.76184500      -3.45728200
C       -2.56952900      -1.34936900      -2.59266700
C       -2.82387000      -0.98307300      -1.29370900
C       -1.75075600      -0.55434400      -0.40349400
O       -2.03002200      -0.22733300       0.78099400
N       -0.39884700      -0.48375800      -0.79806000
C        0.59369600      -0.04688100       0.15566500
N        1.88501900       0.09969900       0.03437700
C        2.59334400       0.51432900       1.04739200
C        4.06460400       0.69211700       0.94402800
C        4.74620800       0.42403100      -0.23678100
C        6.10594200       0.61649100      -0.24102400
C        6.77316200       1.05779600       0.87837900
O        8.14347300       1.24496100       0.85213000
C        8.95557700       0.17068800       1.19894200
C        9.35257200      -0.04563800       2.50079000
C       10.15129000      -1.10035500       2.84872700
C       10.59771600      -1.99993800       1.90633200
C       10.19711300      -1.78180800       0.59205600
C        9.39339500      -0.71956100       0.24535300
C        6.11917000       1.32995100       2.05964100
C        4.74306400       1.12916800       2.04450800
C        1.91291400       0.77707700       2.20941900
S        0.30213700       0.41207300       1.77232100
C       -7.16745900       1.68437900       0.46556700
C       -7.90174800       2.59863400      -0.28577800
27
Properties=species:S:1:pos:R:3 energy=-3.563675659927177 pbc="T T T"
C        7.56814800      -0.26109900       1.04841100
N        6.55933700      -0.69339900       0.08055000
N        6.84416300      -1.45831700      -0.98292300
N        5.72268100      -1.74479200      -1.65311300
N        4.76473200      -1.17004200      -1.02818700
C        5.25993300      -0.50100500       0.06555200
S        4.26690000       0.54578700       1.14517300
C        4.11703500       2.17021500       0.14946100
C        3.59400800       1.71977000      -1.17166400
C        2.33412000       1.14239900      -1.22409200
N        1.82333600       0.05947500      -0.49439400
C        1.59267600       0.69247900       0.88933200
C        0.22169200       1.23603100       0.64158900
C        0.15217400       2.60780800       0.38415200
C       -1.09206500       3.15337700       0.08025200
C       -2.15241300       2.35762200       0.04815100
C       -2.08097100       0.98109200       0.30791300
O       -3.24159600       0.24645700       0.25069800
C       -3.48009400      -1.11618000       0.34711400
C       -4.97728700      -1.23079100       0.13954600
C       -5.91795400      -1.13945800       1.08849500
C       -7.24268300      -1.37560400       0.81958000
C       -7.63293900      -1.72275100      -0.47599000
C       -6.67895700      -1.82620600      -1.48406400
C       -5.37384700      -1.57155700      -1.14905100
Cl      -4.08173000      -1.55154800      -2.37858200
C       -0.86839800       0.45023700       0.60022100
31
Properties=species:S:1:pos:R:3 energy=-2.1124617527079703 pbc="T T T"
C        0.61770300       3.01523400      -0.55077100
C        0.38414900       1.62748200      -0.05541900
C       -1.10924800       1.26470800      -0.03466200
N       -1.12066300      -0.16889200      -0.22780200
C       -2.30163200      -0.95796000      -0.21132400
O       -2.25065900      -2.22248600      -0.38806000
C       -3.61433200      -0.37936300       0.00431400
N       -3.91406900       0.92915800       0.21299700
N       -5.22066200       1.04680600       0.36552000
C       -5.91950100       2.28237300       0.60603300
C       -5.80498300      -0.16172400       0.26279800
C       -7.09138400      -0.62812500       0.33404900
C       -7.39844400      -1.96548800       0.18488000
C       -6.40393200      -2.87274100      -0.04204500
C       -5.10524000      -2.42222600      -0.11673000
C       -4.79365700      -1.06952200       0.03404600
C        0.21784800      -0.67610800      -0.43643900
C        0.91059600       0.56060400      -1.00021400
C        2.36728700       0.44453600      -0.96934400
N        3.18885300       0.23114300       0.07207200
C        4.45351900       0.19798100      -0.36909200
C        5.68743800      -0.00601000       0.38862200
C        6.90928300      -0.00859000      -0.24162000
C        8.07292900      -0.19926600       0.46136300
C        8.01019400      -0.39131300       1.82434400
N        6.80935800      -0.38596000       2.42425600
C        5.66004400      -0.20206000       1.76058300
N        4.39092800       0.39172600      -1.67704400
O        3.14430400       0.53581100      -2.01325400
H        0.73711800       1.45451100       0.98660500
H        0.48685600       0.73576100      -1.98727000
28
Properties=species:S:1:pos:R:3 energy=-0.46931278293155776 pbc="T T T"
F        7.07375300       1.75045300      -0.15755200
C        5.79917400       1.44796200       0.24619300
F        5.51810400       1.99216200       1.48179500
F        5.74683000       0.05954600       0.41745900
O        4.83224800       1.83861400      -0.70811600
C        3.49798200       1.58732000      -0.41833000
C        2.76598200       2.55712500       0.25800200
C        1.43935700       2.38483500       0.58235400
C        0.82418500       1.21303800       0.22277200
C        1.53663700       0.24581600      -0.44638600
N        0.85330500      -0.97536300      -0.80823200
C       -0.52762000      -1.15318700      -0.46989800
N       -1.22340000      -0.20492800       0.18531200
C       -2.50237100      -0.35079000       0.50746500
C       -3.27258300       0.66949600       1.21901100
C       -4.59639800       0.44031600       1.51596500
C       -5.38427200       1.35996100       2.18588500
N       -4.79673900       2.51025300       2.54379200
C       -3.50959900       2.77637300       2.27528000
C       -2.72776400       1.86389500       1.61055100
N       -3.10624600      -1.49765500       0.15608400
C       -2.51376800      -2.50264800      -0.49410100
C       -3.19685900      -3.63992500      -0.81683700
C       -2.50758500      -4.63509900      -1.49198100
C       -1.17722000      -4.50188300      -1.83572600
C       -0.53739700      -3.34169900      -1.48908800
C       -1.17298700      -2.31759400      -0.81681200
C        2.86525200       0.42360600      -0.76877800
21
Properties=species:S:1:pos:R:3 energy=-2.623287376473961 pbc="T T T"
C       -4.68393700      -2.17898400      -0.61252900
N       -3.37694100      -2.26989200       0.02927400
C       -2.37936400      -2.53351100      -0.99684900
C       -1.00335100      -2.00766700      -0.56910700
N       -1.10954900      -0.59054700      -0.46210900
C       -0.12674900       0.00265600       0.41350800
C       -0.31042900       1.47675500       0.46576500
C       -0.52005600       2.21394300      -0.68277500
C       -0.69185800       3.58201100      -0.64742000
C       -0.66299700       4.28221300       0.53567200
C       -0.45440900       3.55747000       1.68976400
C       -0.28128100       2.17912500       1.65448000
C        1.24326100      -0.40175000       0.13265900
C        2.06362000      -0.75437700       1.20069200
C        3.37077700      -1.14741800       1.01265700
C        3.91741500      -1.20600700      -0.24994400
Cl       5.58820400      -1.70870900      -0.48699800
C        3.11576900      -0.85921400      -1.31832800
C        1.80550200      -0.46580500      -1.12348800
C       -2.41972500      -0.10293700      -0.18071100
C       -3.08390400      -1.06735600       0.78144400
34
Properties=species:S:1:pos:R:3 energy=-3.3652247212033393 pbc="T T T"
C        9.46282600      -0.18596400      -0.62672500
C        8.09477400      -0.76303200      -0.35703400
O        7.13140400       0.23797700      -0.51232400
C        5.77258200       0.02573000      -0.33297700
C        5.24338700      -1.19318200       0.01557800
C        3.86638500      -1.34844600       0.18265100
C        3.00020400      -0.30289900       0.00733000
C        1.52717300      -0.42058600       0.17416100
C        0.91545800      -0.80005800      -1.16202400
N       -0.52912500      -0.90008000      -0.93295200
C       -1.06366000      -1.82034700       0.00305700
O       -0.21739000      -2.53464100       0.61374400
C       -2.48257600      -1.95054300       0.25668400
C       -2.99668600      -2.90785600       1.14229500
C       -4.34667400      -2.75909000       1.12996200
N       -5.29310700      -3.43698500       1.80750300
C       -6.57531900      -3.09396900       1.61854300
C       -6.91990000      -2.07659800       0.75591700
C       -5.94931400      -1.38634600       0.06542900
C       -4.62412800      -1.73758600       0.25785900
N       -3.48370600      -1.25149200      -0.26811200
C       -3.41751300      -0.18137400      -1.22209000
C       -3.36664200       1.16538600      -0.61185600
C       -4.54750700       1.85367400      -0.31695200
C       -4.51489500       3.11342100       0.25053600
C       -3.32726600       3.71744800       0.53745400
C       -2.14061500       3.06122600       0.25705800
C       -0.84486700       3.72492000       0.57219600
C       -2.19758900       1.80941500      -0.30716600
C        3.52840900       0.91889600      -0.34184000
C        4.90797000       1.08185700      -0.51104100
O        5.43228300       2.31718000      -0.86316400
C        4.56413300       3.41331200      -1.05071500
C        5.39149000       4.61063400      -1.42194200
34
Properties=species:S:1:pos:R:3 energy=-1.8413446971308844 pbc="T T T"
C       -6.62773500      -2.20381200      -0.15247500
C       -5.26635400      -1.98684100       0.49819900
N       -4.31808300      -2.77818700      -0.29732900
C       -3.21342600      -3.20349900       0.53784700
C       -2.66568200      -4.49482500      -0.07567000
S       -3.74021900      -1.74062900      -1.54449300
O       -4.95076600      -1.27273000      -2.33425200
O       -2.87344100      -2.50654100      -2.51927600
C       -2.90470600      -0.35970600      -0.88646800
C       -3.61389900       0.78550900      -0.60235300
C       -3.01212100       1.90266300      -0.08384400
C       -1.63731200       1.86214700       0.15793000
N       -1.08712100       3.04628300       0.69117600
C       -0.05981600       3.74168600      -0.03012100
C       -0.11906400       5.20203800       0.40596100
O       -1.49246700       5.50121700       0.53472500
C       -1.96331100       4.99951400       1.74340800
C       -1.55726300       3.54834400       1.95063000
C       -0.89420700       0.73538600      -0.11314900
N        0.50183600       0.73899800       0.14866300
C        1.29766600      -0.40261700      -0.11774800
O        0.71917000      -1.41194700      -0.59251400
C        2.72773000      -0.41741000       0.14371500
N        3.50661400       0.55838200       0.64369000
C        4.78394400       0.13720900       0.72895200
C        5.92854000       0.96123200       1.24201000
C        4.86093300      -1.15598900       0.27331700
C        6.04369500      -1.99379700       0.18954200
C        7.34686600      -1.45556300       0.62841300
O        5.96753000      -3.16447500      -0.25019700
C        3.56223900      -1.49051000      -0.09058400
C        3.18171500      -2.81679300      -0.64360300
C       -1.55916000      -0.37152900      -0.63972000
H        3.12767600       1.50679100       0.91766900
28
Properties=species:S:1:pos:R:3 energy=-2.3499940414742797 pbc="T T T"
O       -1.11051900       0.84510700      -0.84046700
C       -1.48608700      -0.15203000      -0.17876000
N       -2.84553400      -0.20445200       0.22632300
C       -3.76768000       0.85271900      -0.11025000
C       -5.07352800       0.76803800       0.29868000
C       -5.94940400       1.77576900      -0.02294400
C       -5.57056700       2.87173600      -0.74133600
Br      -6.77994900       4.28528200      -1.19777600
C       -4.24546200       2.94642200      -1.15001600
C       -3.36035500       1.94491500      -0.83442400
C       -0.57168700      -1.23977400       0.17710200
C       -1.04201900      -2.31157800       0.90576300
C       -0.24961300      -3.37059700       1.27927200
C        1.08781100      -3.32002400       0.88242100
F        1.91114500      -4.36097600       1.23722300
C        1.58873400      -2.26229900       0.15320300
S        3.27534600      -2.32025800      -0.27897700
O        4.06494900      -2.29626200       1.02010300
O        3.62927000      -3.54218500      -1.05387700
N        3.76503100      -0.94602100      -1.18235100
C        3.58274700       0.20870100      -0.40568000
C        3.92901100       1.50523700      -0.95948200
C        2.81189300       2.51322000      -1.02387900
C        2.55610100       3.21955500       0.26306600
C        3.23109900       2.53549400       1.42374700
C        2.54286600       1.20808200       1.64154700
C        3.32041700       0.07210900       1.01917000
C        0.75598200      -1.22592700      -0.19654600
29
Properties=species:S:1:pos:R:3 energy=-3.5883682725175476 pbc="T T T"
C        7.29345700      -1.60208000      -1.00863900
C        6.73834700      -0.53025900      -0.15121000
O        7.49912700       0.05890700       0.65269500
C        5.33458300      -0.14963200      -0.22321000
C        4.72679000       0.80266400      -1.01919100
C        5.45972400       1.64883300      -1.99636700
N        3.38794800       0.82293800      -0.75500600
C        3.10884900      -0.08903800       0.18986300
C        1.77770700      -0.36694100       0.74197400
O        1.62378100      -1.25305000       1.63530600
N        0.62213600       0.31795100       0.32167000
C       -0.66024600       0.01451400       0.88824500
C       -0.74458900      -0.96442400       1.85702300
C       -2.00051300      -1.23472800       2.38581600
C       -3.11757400      -0.54288100       1.95058000
C       -3.02752800       0.43499000       0.98162900
S       -4.46772600       1.27020400       0.47564900
O       -5.43045800       1.26113200       1.65207200
O       -4.14556900       2.69143000       0.19443100
N       -5.26062600       0.51337600      -0.83182000
C       -5.71143700      -0.80969600      -0.53968000
C       -6.69790600      -1.34720600      -1.52948300
C       -6.42618200      -0.86240400      -2.93620300
C       -4.96415900      -0.44215300      -3.07090900
C       -4.60809900       0.65339500      -2.08983900
C       -1.78009600       0.70383700       0.45605200
C        4.28992700      -0.69304500       0.52604100
C        4.45338100      -1.76389500       1.53137300
H        2.72695200       1.45726100      -1.23090600
32
Properties=species:S:1:pos:R:3 energy=-4.281515453077493 pbc="T T T"
C       -8.61333300       1.68230000       1.67895300
C       -9.12499200       1.60288300       0.27290000
O       -8.79762200       0.38239400      -0.36218600
C       -7.44862000       0.05277700      -0.50357300
C       -6.44871500       0.88318300      -0.04224300
C       -5.11193200       0.57022100      -0.17515200
C       -4.72053700      -0.60395700      -0.78431800
N       -3.33984700      -0.96269000      -0.94026400
C       -2.30952300      -0.11728300      -0.47009100
O       -2.58965900       0.98157200       0.10223300
C       -0.90180700      -0.47762300      -0.62623700
C       -0.59048600      -1.65742300      -1.24090800
C        0.71044000      -2.02190900      -1.40180900
C        1.70707400      -1.19292500      -0.94066200
F        2.99095100      -1.58226200      -1.11594600
C        1.44950900       0.00557300      -0.31480600
S        2.72794600       1.03981500       0.26240400
O        2.18344900       2.29921900       0.85614200
O        3.62401700       1.37445500      -0.92327800
N        3.70637800       0.27360800       1.42825900
C        2.96622600      -0.10022600       2.59641400
C        2.93879700       0.97168600       3.65428200
C        4.58128200      -0.73135500       0.91393800
C        5.90131500      -0.21656000       0.50940700
C        6.29172300       1.09537500       0.60149600
C        7.54799600       1.50431100       0.20173500
C        8.45981100       0.58815000      -0.30986900
C        8.06274800      -0.72337300      -0.39937000
C        6.81694000      -1.11405300      -0.00022900
C        0.10950800       0.34289800      -0.16918600
C       -5.72092200      -1.43359400      -1.24525600
C       -7.05811300      -1.12143300      -1.11277900
22
Properties=species:S:1:pos:R:3 energy=-2.183497525824722 pbc="T T T"
C       -2.83859000       3.15687100       2.99068500
O       -3.10415000       2.22144700       1.94705900
C       -2.11890000       1.48215100       1.32896800
O       -0.93695000       1.65444200       1.71716800
C       -2.41720600       0.53045200       0.26232100
C       -3.69877200       0.33131600      -0.17174900
C       -3.95882900      -0.57831300      -1.18691200
C       -2.96043400      -1.31467800      -1.79959400
O       -3.24434800      -2.21906700      -2.81329300
C       -1.67512200      -1.10379800      -1.35234700
N       -0.63632900      -1.77017100      -1.88339900
C        0.63107300      -1.59361800      -1.47587300
C        0.92991300      -0.69716300      -0.46805500
N        2.26342000      -0.49651500      -0.02341800
C        2.48996100       0.46006600       1.03637300
C        3.96264900       0.46620300       1.36890500
N        4.80888400       0.62132400       0.23053600
C        6.17848600       0.39276400       0.63636400
C        4.44727700      -0.15638000      -0.90840000
C        3.40778700      -1.19229700      -0.56794100
C       -0.11708800      -0.00771200       0.08619300
C       -1.41273000      -0.18732400      -0.32948100
22
Properties=species:S:1:pos:R:3 energy=-1.8134159216058738 pbc="T T T"
C        5.70836300       2.03185100      -0.09278200
C        4.38674000       2.49731300       0.47516200
C        3.29649700       1.53611400       0.26579100
C        2.96781200       0.52923000       1.14212500
C        1.91979900      -0.34654700       0.87773300
C        1.17153500      -0.23358800      -0.27819400
C        0.04296800      -1.14431800      -0.60530800
N        0.37124900      -2.52414700      -0.36174400
C       -0.33050200      -3.35560200       0.29026800
N        0.16463100      -4.68821900       0.42547600
N       -1.55551300      -2.92906500       0.84603200
C       -1.97728200      -1.58277000       0.66540100
N       -3.08253000      -0.89636300       1.07333500
C       -3.01522400       0.36898600       0.64312900
C       -3.83313100       1.47055600       0.76092500
C       -3.49768000       2.68349200       0.19636500
C       -2.30850600       2.76402000      -0.49654800
C       -1.47983100       1.66558700      -0.62136500
C       -1.81505800       0.45310800      -0.05707200
N       -1.19958200      -0.74062200      -0.03258300
C        1.51456500       0.78226300      -1.14695300
C        2.55068000       1.65872200      -0.89947900
30
Properties=species:S:1:pos:R:3 energy=-0.2664846975751178 pbc="T T T"
C       -4.19020300       4.48241000      -0.02157000
O       -4.69305900       3.17930200      -0.17283700
C       -3.90032400       2.03364500      -0.10808400
C       -2.55551200       2.14967900       0.11338700
C       -1.77237600       1.01042200       0.17661500
C       -0.40981600       1.07655600       0.39801100
C        0.29375200      -0.10365100       0.44607300
C        1.75978400      -0.05415800       0.68228600
N        2.22302700       1.28809100       0.83088600
C        1.99640700       2.14819600      -0.29043300
C        3.18570800       1.90089000      -1.18912800
C        4.29788500       1.42049600      -0.32105400
N        5.40649500       2.34270100      -0.23150200
C        5.06802100       3.60130500       0.35437900
C        6.11051600       2.46467700      -1.47894200
C        3.64113300       1.39146500       1.05356800
C       -0.30443600      -1.34129300       0.28294500
C        0.47664200      -2.56926800       0.34012900
C        1.39544200      -2.67537600       1.37133000
C        2.19121400      -3.79102300       1.52550900
C        2.04222300      -4.80931000       0.61104800
C        1.13630800      -4.73370000      -0.42658300
Cl       1.00538200      -6.08154700      -1.55765600
C        0.35850000      -3.60192700      -0.54755600
N       -1.63128300      -1.32655300       0.07169400
C       -2.38354100      -0.21339000       0.01224600
C       -3.76344800      -0.29754500      -0.21304000
C       -4.55042700       0.83207900      -0.27749500
O       -5.92526300       0.78273500      -0.50011900
C       -6.50875200      -0.50590800      -0.66334600
21
Properties=species:S:1:pos:R:3 energy=-3.6396615669051 pbc="T T T"
C       -4.97015500       1.47215200      -2.22787600
C       -4.62276400       0.44558300      -1.21592800
C       -5.60068300      -0.41659200      -0.77269500
C       -5.30018400      -1.37724300       0.16639100
C       -4.01242400      -1.45469700       0.64679100
C       -3.01465500      -0.61685100       0.23126200
C       -1.62711400      -0.73349800       0.77804600
C       -1.34996100      -1.69834500       1.71332300
S        0.30507100      -1.44600300       2.02214000
C        0.55620600      -0.13941500       0.95628200
N        1.77799300       0.58868100       0.70908800
C        1.86499300       1.67553400      -0.21686900
C        3.14458900       1.52170000      -1.00216700
C        4.36593900       1.37116600      -0.15026900
C        5.03924400       0.06867200      -0.41361300
N        4.30479000      -1.15013200      -0.18084900
O        6.20772400      -0.03732000      -0.82614400
C        3.94202400       1.35386400       1.30350100
C        2.94864400       0.18995600       1.43479600
N       -0.63081100       0.04199500       0.41685000
C       -3.32846600       0.34079200      -0.70944800
24
Properties=species:S:1:pos:R:3 energy=-1.1192099796976864 pbc="T T T"
C        7.48882300      -1.26609000      -1.19422300
C        6.87239200      -0.17792800      -0.34503600
C        6.22057800      -0.78567700       0.88866200
C        5.63024900       0.38628200       1.67708600
N        4.65433000       1.04821200       0.80618300
C        4.90046400       2.05799500      -0.04968900
N        3.73025800       2.34631000      -0.63204900
C        2.75156700       1.54603000      -0.16725800
C        1.39791500       1.43046500      -0.43048000
C        0.59992900       0.49801900       0.20432200
N       -0.78784900       0.40160200      -0.08572000
C       -1.56848500      -0.59526600       0.61294400
C       -2.99290200      -0.56495300       0.19693600
C       -3.49275200       0.30688200      -0.73666600
C       -4.83377800       0.28834200      -1.08519500
C       -5.71531400      -0.60350700      -0.50977400
O       -7.07039100      -0.61473100      -0.86881200