32
Properties=species:S:1:pos:R:3 energy=0.8327574291637871 pbc="T T T"
C       -6.97580600       3.04361000      -1.35145800
C       -5.75020800       3.05070900      -0.45534000
O       -5.23357300       4.15781400      -0.21251500
C       -5.21415600       1.79573300       0.07384100
C       -5.77531800       0.51001400      -0.01586800
C       -7.14096500       0.21597600      -0.57947900
N       -4.87149800      -0.37514200       0.43125200
C       -3.76525200       0.26262100       0.81732400
C       -2.55716800      -0.48142500       1.19460200
O       -1.95855900      -0.86864000       2.08310700
N       -1.95087800      -0.86700400      -0.15693700
C       -0.83104800      -1.57161800      -0.47871400
C       -1.05989900      -2.59905700      -1.55318900
C        0.00682400      -3.29776100      -1.87823200
C        1.23510900      -3.27031800      -1.42991200
C        1.47811300      -2.24802300      -0.36785600
S        3.08715000      -2.00938100       0.08339100
O        3.89414900      -2.01710600      -1.21243100
O        3.60392400      -3.18758500       1.10384700
N        3.23478700      -0.43698100       0.82997800
C        4.26295200       0.43058100       0.28071400
C        4.04068500       0.97767400      -0.94465100
C        4.97626200       1.74631500      -1.58420600
C        6.22918100       1.95505500      -0.95256000
C        6.51265900       1.44298600       0.21873400
C        7.76958400       1.01045500       0.72167000
N        8.86164500       0.64808400       1.13832900
C        5.42837900       0.64025400       0.87185400
C        0.38957600      -1.52536500      -0.02071200
C       -3.96548600       1.60541800       0.60402700
C       -2.89026700       2.66676900       0.80838200
H       -5.07089800      -1.40466200       0.40048600
26
Properties=species:S:1:pos:R:3 energy=0.1575673807878369 pbc="T T T"
C       -0.40488000       3.03599300      -1.28648900
C       -1.79456800       2.65578500      -0.89758900
C       -1.81027300       1.20298400      -0.49668100
N       -0.70717000       0.59584300      -0.55672400
C       -0.32830900      -0.71859600      -0.27459800
C        1.04844900      -0.82860400      -0.04548400
C        1.65300500      -2.01115500       0.24777900
C        3.08914900      -2.00611200       0.46645100
O        3.66129900      -3.08694100       0.73750700
N        3.87223800      -0.83057200       0.38646900
C        5.30300900      -0.91975200       0.62033000
C        5.85739900       0.48993900       0.46559300
C        5.54450300       0.93772300      -0.93207900
O        6.04338200       2.23913700      -1.11060200
C        5.45701600       3.12253300      -0.20302300
C        0.88348200      -3.14560000       0.32285000
C       -0.48134600      -3.05644600       0.09911900
C       -1.07961100      -1.84940900      -0.19732400
S       -2.84937500      -2.04725900      -0.43290600
C       -3.65418000      -0.50733800      -0.03160000
C       -4.94610800      -0.76200600       0.37612500
C       -5.75030300       0.29437300       0.73599100
C       -5.24216200       1.57308000       0.67851900
Br      -6.30733700       3.08387000       1.16492900
C       -3.95002400       1.79681600       0.26801600
C       -3.10728500       0.74171400      -0.10458100
31
Properties=species:S:1:pos:R:3 energy=0.193503800967519 pbc="T T T"
C       -7.15085900       3.08646200       1.64137900
C       -6.64982000       1.73677100       1.20994700
C       -5.34602100       1.56297500       0.81529800
C       -4.92518500       0.31600000       0.42820400
C       -5.78207800      -0.76364700       0.42721800
N       -5.38207600      -2.07082400       0.03267900
S       -4.43193700      -2.28355600      -1.40048800
O       -4.17542800      -3.74385000      -1.61796500
O       -5.23279400      -1.73207000      -2.56712200
C       -2.89240000      -1.46212600      -1.27359100
C       -2.75745600      -0.15265300      -1.68899700
C       -1.54988400       0.53346900      -1.60388600
C       -0.44455900      -0.08599300      -1.09600100
C        0.85329700       0.56684100      -0.97537300
O        1.00229500       1.75956200      -1.34571000
N        1.99083900      -0.10026000      -0.44370000
C        3.25487300       0.63066600      -0.35891100
N        4.36256000       0.24058200       0.06950100
C        5.42972300       0.88634000       0.13123500
C        6.73757900       0.45255800       0.62779700
C        7.84210300       1.27053500       0.64021500
C        9.04850200       0.81021500       1.11890700
C        9.21107500      -0.47233900       1.60277200
C        8.11681000      -1.30460900       1.59799300
C        6.91437600      -0.83748700       1.11801700
C        5.34660400       2.29676500      -0.37545900
S        3.54339000       2.26359500      -0.84328400
C       -0.55385800      -1.39379300      -0.67434000
C       -1.76893500      -2.07851300      -0.76193700
C       -7.10215400      -0.59789900       0.82456700
C       -7.50858300       0.66628200       1.21147000
27
Properties=species:S:1:pos:R:3 energy=0.0165860400829301 pbc="T T T"
C       -6.74588400      -2.54289300       0.21164800
C       -7.31167800      -1.21593000       0.67990400
O       -6.60906700      -0.16354000       0.07851600
C       -5.24503800      -0.03826300       0.28935200
C       -4.59555800      -0.93873600       1.07979300
C       -3.22473000      -0.76950900       1.26054200
C       -2.55646500       0.26864900       0.66181000
C       -1.10360200       0.40922900       0.88123300
C       -0.40403600      -0.38366500      -0.21479700
N        1.01378100      -0.25375700      -0.01086300
C        1.99206600      -0.86023900      -0.84217900
O        1.59031000      -1.54897600      -1.81029200
C        3.41628800      -0.68692200      -0.57752800
C        4.46266400      -1.22295300      -1.30943400
C        5.67266800      -0.84705400      -0.76529100
C        7.00433000      -1.05755500      -1.03807900
C        8.03117400      -0.52922400      -0.28398100
C        7.66923700       0.24828300       0.79600700
C        6.35460600       0.49765200       1.12334300
C        5.35213400      -0.06368700       0.32353800
N        4.00758300       0.01181000       0.40760100
C        3.27235600       0.75116100       1.42837200
C       -3.22709500       1.15872500      -0.12582400
C       -4.56974600       1.01790100      -0.32077000
O       -5.31626600       1.88107800      -1.10581100
C       -4.77145100       2.98083400      -1.77604000
C       -4.15858200       3.89758300      -0.72246500
38
Properties=species:S:1:pos:R:3 energy=0.2073255010366275 pbc="T T T"
C       -9.32397800      -3.40456700       0.80068000
C       -8.51094600      -2.16978300       0.71659000
C       -7.88697000      -1.59268100       1.79045700
C       -7.13839600      -0.43963600       1.66341800
C       -7.00201400       0.16403800       0.43108500
S       -6.06645000       1.62181100       0.22104300
O       -6.19671000       2.51689600       1.41393200
O       -6.63646700       2.37204900      -0.95963300
N       -4.41574900       1.28113600      -0.14260600
C       -4.12624900       0.56165900      -1.33125400
C       -5.15294800       0.13839600      -2.18791300
N       -4.83662700      -0.53878100      -3.30092100
C       -3.56653200      -0.80731500      -3.59178900
C       -2.51583600      -0.40365300      -2.76539600
C       -2.81029300       0.29044300      -1.62066400
C       -1.77443000       0.74206900      -0.71441800
O       -2.06166000       1.38683600       0.34717800
N       -0.41558600       0.48641700      -0.97166200
C        0.58202200       1.00112400       0.03713500
N        1.87707400       0.77158300      -0.18399000
C        2.76874700       1.15500300       0.58704100
C        4.23219500       0.95720400       0.44217500
C        5.12607500       1.43017000       1.36623000
C        6.48256600       1.25235900       1.24139100
C        6.96279300       0.57502600       0.14952900
O        8.31722300       0.34522300      -0.06423500
C        8.85501900      -0.82229000       0.46089000
C        9.37374700      -0.80935700       1.73344700
C        9.92323300      -1.91880300       2.32610900
C        9.95984900      -3.09889400       1.62167200
C        9.44450500      -3.12720700       0.34702000
C        8.89257500      -2.00436500      -0.24258900
C        6.09958000       0.08578200      -0.79825400
C        4.74269500       0.28088200      -0.64398400
C        2.32262600       1.90670500       1.81015600
S        0.49659400       1.81991600       1.42207100
C       -7.63689500      -0.43059900      -0.63866700
C       -8.38438100      -1.57479500      -0.53384700
27
Properties=species:S:1:pos:R:3 energy=0.0283344851416724 pbc="T T T"
C        6.04294700      -0.09340700       2.13409200
N        6.74626000      -0.20557100       0.84930400
N        7.98775400       0.07369500       0.54496100
N        8.19970400      -0.18934600      -0.74656500
N        7.02556500      -0.64567000      -1.21924700
C        6.12208900      -0.66805300      -0.25093200
S        4.40449600      -1.11497900      -0.34307800
C        3.46713100       0.28223300      -0.99367500
C        3.65053100       0.37034600      -2.54861800
C        3.10423700      -1.12902800      -2.88501100
N        1.90058600      -1.15344200      -2.03899000
C        0.97397000      -0.17546000      -2.44122300
C       -0.05557800       0.14665300      -1.33089600
C        0.22181800       1.21924500      -0.57916200
C       -0.62191000       1.71913800       0.33398000
C       -1.84017900       0.99502600       0.42469000
C       -2.13872700      -0.09359600      -0.31843000
O       -3.42124800      -0.66176200      -0.08611400
C       -4.29235700      -0.09303400       0.60721300
C       -5.44725900      -0.30517700       1.33176100
C       -5.37445400      -0.77377500       2.67506300
C       -6.52174100      -0.69199600       3.45418800
C       -7.68397200      -0.19255500       2.97176800
C       -7.80760200       0.28302700       1.64891100
C       -6.67285600       0.19963800       0.89154800
Cl      -6.72896300       0.68072500      -0.82092200
C       -1.24024200      -0.61128800      -1.26461500
31
Properties=species:S:1:pos:R:3 energy=0.1209398756046993 pbc="T T T"
C        1.48387200       1.33615200       3.25652900
C        0.48419700       0.62699500       2.39846400
C       -0.88765300       1.26703200       2.43433400
N       -1.52277400       0.80767900       1.21453500
C       -2.90921000       0.84832000       0.95960100
O       -3.69123000       1.30538900       1.81774900
C       -3.41597400       0.35403500      -0.30862800
N       -2.68654700      -0.16343900      -1.31950500
N       -3.46592200      -0.51494200      -2.32662000
C       -2.97716000      -1.10987300      -3.57679500
C       -4.74036200      -0.23740700      -2.00644400
C       -5.92585000      -0.40661300      -2.69487100
C       -7.11615600      -0.02602800      -2.11568600
C       -7.08047800       0.51144800      -0.86631900
C       -5.90933300       0.69680800      -0.14422600
C       -4.72864100       0.30989500      -0.74042100
C       -0.49167100       0.29842300       0.29876900
C        0.80691100       0.76506000       0.90498300
C        1.95496100      -0.05340800       0.51890100
N        3.11638800       0.35156700      -0.03567200
C        3.91913100      -0.70795500      -0.24083500
C        5.26502300      -0.70915400      -0.82100400
C        5.88445200       0.44005600      -1.24106300
C        7.15242300       0.38220000      -1.78023100
C        7.80790500      -0.81922600      -1.90309200
N        7.18746700      -1.93271100      -1.48734800
C        5.94129900      -1.90119500      -0.95407400
N        3.22018200      -1.76708800       0.20136500
O        2.06178200      -1.34420200       0.64452800
H        0.34161800      -0.44010700       2.66946400
H        0.92134700       1.83229300       0.71462300
28
Properties=species:S:1:pos:R:3 energy=0.6254319281271596 pbc="T T T"
F        5.10145500      -2.16357400       4.72886200
C        4.17288100      -1.43728800       4.03739600
F        3.83394100      -0.28071500       4.74717100
F        4.57739700      -1.10681500       2.75554900
O        2.93671900      -2.15262800       3.87535000
C        1.95676400      -1.46834800       3.17887600
C        1.02347000      -0.64219300       3.76527900
C        0.06766700       0.01863700       3.03583300
C        0.02948300      -0.13942900       1.68186000
C        0.93319400      -0.94811600       1.05197000
N        0.90636500      -1.12226300      -0.37662300
C       -0.02835300      -0.46394100      -1.19546000
N       -0.94768800       0.35752000      -0.66909100
C       -1.85590200       0.99830600      -1.44434000
C       -2.85362300       1.89240100      -0.83875600
C       -2.88895400       2.09612100       0.52307900
C       -3.82134600       2.93514800       1.11594000
N       -4.72327700       3.57569900       0.35727500
C       -4.69781100       3.38317900      -0.98151200
C       -3.78452800       2.55582000      -1.60562700
N       -1.81926600       0.79383900      -2.76861100
C       -0.93246100      -0.01198100      -3.37788700
C       -0.91642500      -0.20373300      -4.74172900
C        0.00906600      -1.03452400      -5.30985800
C        0.93087800      -1.68135400      -4.49494500
C        0.91425300      -1.48898900      -3.12956600
C       -0.00229100      -0.66444400      -2.55414300
C        1.87839200      -1.59633800       1.81162800
21
Properties=species:S:1:pos:R:3 energy=0.0725639253628196 pbc="T T T"
C       -4.19954200      -1.72934900       1.32931800
N       -3.01021800      -1.87514000       0.51993200
C       -3.09445000      -1.03675000      -0.66637500
C       -1.88987900      -1.32807500      -1.53876800
N       -0.65437500      -1.27358600      -0.84517900
C        0.10459800      -0.08967300      -0.99498700
C       -0.55544900       1.14088700      -0.54998200
C       -1.25236400       1.28465200       0.62666500
C       -1.85029200       2.47345600       0.98444800
C       -1.73666700       3.54129100       0.12507800
C       -1.05173600       3.45744200      -1.06647200
C       -0.47356000       2.24820000      -1.37591400
C        1.45066400      -0.28275700      -0.41023400
C        2.54659400       0.15269700      -1.12426700
C        3.82712400      -0.00419700      -0.62182100
C        4.02770000      -0.60040600       0.60474600
Cl       5.67345300      -0.76461100       1.17530800
C        2.93286600      -1.02620300       1.29955000
C        1.65562200      -0.87410100       0.80721100
C       -0.62970800      -1.88002100       0.43984300
C       -1.82038300      -1.53375500       1.28190100
34
Properties=species:S:1:pos:R:3 energy=0.0345542501727712 pbc="T T T"
C        7.36342900       0.74192900       4.14578500
C        7.28976900       2.13448300       3.53303300
O        6.96715400       1.99408400       2.17034400
C        5.79307800       1.38498200       1.73666600
C        4.85215500       0.87048500       2.60397300
C        3.68883300       0.26786700       2.13256000
C        3.42983200       0.16072700       0.78173000
C        2.18262600      -0.48562400       0.28935100
C        1.06518800       0.52857600       0.13566100
N       -0.14839600      -0.08574300      -0.34078800
C       -0.82764800      -1.11757800       0.35149800
O       -0.28857600      -1.47863800       1.44674500
C       -2.04628000      -1.75929600      -0.09521000
C       -2.66549700      -2.80251300       0.56981400
C       -3.80525800      -3.19975900      -0.12135900
N       -4.73832600      -4.14010200       0.08563600
C       -5.74889300      -4.29803400      -0.77164500
C       -5.81929200      -3.48155400      -1.87131500
C       -4.87188200      -2.51401500      -2.09749200
C       -3.84925600      -2.37280400      -1.20658800
N       -2.79063400      -1.51710100      -1.17571700
C       -2.50694200      -0.50369300      -2.16578000
C       -3.20581500       0.75849300      -1.84597200
C       -2.69884700       1.77905900      -1.09524200
C       -3.38910700       2.93026000      -0.82782000
C       -4.65808400       3.06698700      -1.34097400
C       -5.18224400       2.03045600      -2.10769800
C       -6.57394700       2.26569300      -2.62720100
C       -4.49957700       0.87926500      -2.37860100
C        4.37812100       0.67908500      -0.08472100
C        5.53271300       1.27707800       0.38787400
O        6.45389500       1.78204900      -0.51978000
C        6.29969900       1.73080800      -1.90252400
C        5.01800900       2.49408800      -2.24455000
34
Properties=species:S:1:pos:R:3 energy=0.15860400829302 pbc="T T T"
C        4.97798100       1.77058000      -0.39923800
C        5.58608000       1.57522000       0.94674800
N        4.68175700       1.59740900       2.05102200
C        3.58973400       2.51598000       1.94760500
C        3.01328900       2.66985500       0.57520800
S        4.08423500       0.03759500       2.38279600
O        5.17866300      -0.91570200       2.81192600
O        3.14658800       0.14558900       3.56654900
C        3.18686300      -0.63630700       1.04731000
C        3.87862700      -1.37186000       0.11081700
C        3.19360500      -1.91304800      -0.95054800
C        1.81159800      -1.72236200      -1.08281400
N        1.09463800      -2.27018700      -2.16455200
C        0.01913900      -3.20140400      -1.95169700
C       -0.80113100      -3.21843000      -3.24860700
O       -0.94908500      -1.92854600      -3.75402400
C        0.21104500      -1.39742900      -4.26161900
C        1.44095700      -1.89422400      -3.50974600
C        1.12196700      -0.99012900      -0.15085700
N       -0.26490700      -0.80474300      -0.29294000
C       -1.07449400      -0.07100100       0.60417300
O       -0.53586800       0.44959600       1.58782800
C       -2.49943500       0.03256700       0.32201800
N       -3.16949200      -0.49755300      -0.71760600
C       -4.47058900      -0.18818600      -0.63866700
C       -5.53531400      -0.57621600      -1.57877000
C       -4.64055100       0.56773100       0.49275800
C       -5.90020400       1.11216300       0.95295200
C       -6.73696300       0.31827500       1.86034100
O       -6.21104300       2.26701500       0.53513700
C       -3.39762800       0.71107300       1.10501900
C       -3.15767400       1.45322900       2.34275700
C        1.80586600      -0.44722700       0.91284300
H       -2.67825200      -1.06538100      -1.45412000
28
Properties=species:S:1:pos:R:3 energy=0.0953697304768486 pbc="T T T"
O        3.16863800      -1.49751600       0.79402300
C        2.39363400      -0.54955100       0.50847000
N        2.97737400       0.57598600      -0.12694200
C        4.37238600       0.63929800      -0.43111000
C        4.89933500       1.75244800      -1.04956700
C        6.22847000       1.88825900      -1.37427700
C        7.09469000       0.85022700      -1.06508500
Br       8.93625800       1.05351600      -1.52196600
C        6.60773900      -0.28383900      -0.44483600
C        5.24833500      -0.38278100      -0.13120600
C        0.96037400      -0.61158600       0.81960600
C        0.43141300      -1.72297200       1.43909500
C       -0.92030600      -1.79279500       1.73887100
C       -1.77808800      -0.74276600       1.42215300
F       -3.08805800      -0.78921900       1.76045500
C       -1.27576600       0.37560700       0.80248300
S       -2.32458400       1.66959800       0.33597100
O       -1.40948100       2.84138600      -0.04049400
O       -3.10995800       2.15454900       1.54188600
N       -3.29442500       1.35334200      -0.99054600
C       -4.22959900       0.32708200      -1.01533200
C       -3.72491900      -1.07656900      -1.18523900
C       -4.61455800      -1.79872300      -2.17075800
C       -5.65712900      -2.58694900      -1.40007400
C       -6.63100900      -1.63000400      -0.75377300
C       -5.96167800      -0.87071900       0.35127500
C       -5.39732300       0.44483900      -0.07592800
C        0.09823400       0.40985400       0.51587800
29
Properties=species:S:1:pos:R:3 energy=0.027643400138217 pbc="T T T"
C       -6.49031200       0.95348900       2.48751700
C       -5.73695700       1.71529300       1.45032300
O       -5.93633000       2.96377100       1.41204100
C       -4.83961000       1.02899600       0.55863300
C       -5.05974600       0.45350900      -0.67501000
C       -6.37403500       0.43050000      -1.37651200
N       -3.89360200      -0.08321900      -1.14040900
C       -2.92696900       0.13194400      -0.23737800
C       -1.54447600      -0.28727100      -0.36519900
O       -0.70325500      -0.02733000       0.56237700
N       -1.02990000      -0.98906300      -1.47810700
C        0.33077700      -1.38985900      -1.58083100
C        0.81115400      -2.07322700      -2.67485300
C        2.13563400      -2.46760400      -2.78313300
C        2.98642800      -2.16238000      -1.76236800
C        2.56367500      -1.47739100      -0.63640700
S        3.71876000      -1.13617600       0.60668700
O        4.80907700      -2.18908700       0.55488200
O        3.11988100      -1.19374700       1.96061300
N        4.51125700       0.39659500       0.35245500
C        5.23691700       0.37654700      -0.89694800
C        5.66465200       1.78412100      -1.24722300
C        5.74540500       2.55573700       0.05738700
C        6.35957900       1.70348300       1.12963300
C        5.40037100       0.58595100       1.48304700
C        1.23272000      -1.10686000      -0.57790600
C       -3.47862600       0.81396800       0.81871000
C       -2.76126800       1.25673200       2.04164000
H       -3.85120200      -0.56742200      -2.06465100
32
Properties=species:S:1:pos:R:3 energy=0.0138217000691085 pbc="T T T"
C        8.92738800      -0.97666900       1.34906500
C        9.22583700       0.00271800       0.21461200
O        8.36808700      -0.26756000      -0.86104800
C        6.99499200      -0.17221200      -0.64820000
C        6.46800600       0.17668100       0.57779200
C        5.09809000       0.27556100       0.80388800
C        4.21360000       0.01949700      -0.22229900
N        2.81872500       0.10409100      -0.05103800
C        2.17986700       0.45073200       1.15470700
O        2.86094000       0.70839400       2.16562900
C        0.73745900       0.51147400       1.23401000
C        0.08131300       0.84793300       2.39976500
C       -1.30569700       0.89521000       2.43549300
C       -2.06739300       0.60909400       1.31363400
F       -3.44040100       0.65963700       1.36267000
C       -1.42084000       0.27226700       0.14557800
S       -2.29194400      -0.10491100      -1.31442400
O       -3.12050800       1.12937800      -1.64241100
O       -1.30577400      -0.23589500      -2.43649000
N       -3.32773200      -1.41311800      -1.18254400
C       -2.79355900      -2.66751100      -0.87512800
C       -2.71362200      -2.96797400       0.61313500
C       -4.57054500      -1.34664700      -1.84068200
C       -5.67716200      -0.77337000      -1.04706200
C       -6.45609800      -1.61355600      -0.27625600
C       -7.51077900      -1.10858600       0.48716000
C       -7.78079200       0.24989800       0.47288000
C       -7.00757300       1.07909800      -0.29144500
C       -5.96085700       0.56891500      -1.04755700
C       -0.04701100       0.23053800       0.12883700
C        4.72229400      -0.33060600      -1.45454700
C        6.10168700      -0.42621900      -1.66772700
22
Properties=species:S:1:pos:R:3 energy=0.1126468555632342 pbc="T T T"
C       -3.43677000      -3.45358000      -2.21653700
O       -3.29513800      -2.04868100      -2.11717000
C       -2.25996500      -1.43573600      -1.44945800
O       -1.40346900      -2.17909400      -0.90456000
C       -2.13559600       0.02788100      -1.36083500
C       -3.05891200       0.84675200      -1.94797100
C       -2.97714100       2.23933200      -1.88723600
C       -1.91061000       2.76611700      -1.20024700
O       -1.83137700       4.15847800      -1.14114700
C       -0.97456000       1.95074500      -0.60492600
N        0.04106100       2.53578400       0.04969200
C        0.97807000       1.79192400       0.64598500
C        0.93934300       0.41288200       0.61293200
N        1.93115700      -0.38231700       1.24384700
C        1.85538700      -1.81122300       1.18938700
C        3.26657700      -2.34786500       1.33834000
N        3.73466300      -2.00737100       2.64918800
C        5.06135400      -2.54717300       2.90900600
C        3.63608000      -0.62482600       2.98691100
C        3.01606200       0.24015200       1.94012000
C       -0.10714600      -0.18080900      -0.06153200
C       -1.06907000       0.56563300      -0.67378500
22
Properties=species:S:1:pos:R:3 energy=0.1630960608154803 pbc="T T T"
C        5.20306400      -0.37532000       2.32763000
C        4.70888100       0.86363200       1.63773600
C        3.48711100       0.61657700       0.82672600
C        2.23233600       0.75413400       1.38455500
C        1.07901600       0.52794100       0.64394800
C        1.15506400       0.15862200      -0.67290100
C       -0.04456900      -0.09987100      -1.52555600
N        0.17374000      -1.29882000      -2.26870000
C       -0.54674700      -2.34787100      -2.27928200
N       -0.11648700      -3.41931100      -3.10842500
N       -1.71379800      -2.40081100      -1.48631900
C       -2.04574900      -1.24991900      -0.68703400
N       -3.06130800      -0.98138200       0.15784500
C       -2.92640700       0.26868600       0.67831900
C       -3.68083400       1.00919000       1.57219200
C       -3.29522800       2.28134200       1.92759700
C       -2.14339700       2.78648700       1.36780400
C       -1.39424100       2.04817000       0.47870700
C       -1.77224900       0.76708400       0.11357500
N       -1.24983500      -0.16731400      -0.71287600
C        2.40123600       0.01610700      -1.24788200
C        3.55040100       0.24264700      -0.50581000
30
Properties=species:S:1:pos:R:3 energy=0.7660677263303386 pbc="T T T"
C       -5.08794400      -3.37640100      -1.76183400
O       -5.34653900      -2.04410500      -1.34618100
C       -4.32897400      -1.15706200      -1.01870000
C       -2.99499600      -1.48448300      -1.06693700
C       -2.04301600      -0.53039000      -0.72096200
C       -0.69167000      -0.82164500      -0.75755700
C        0.27064500       0.08708600      -0.42637300
C        1.71087600      -0.14210500      -0.43936900
N        2.09429800      -1.46980200      -0.84135500
C        1.55550600      -2.49496600       0.02621700
C        2.48951400      -2.60989000       1.18920000
C        3.80102500      -2.12993500       0.65326900
N        4.71839300      -3.25260000       0.63986400
C        4.91281900      -3.69658500       2.00808200
C        6.00844900      -2.91451600       0.05284400
C        3.54248400      -1.61000300      -0.75250000
C       -0.17596500       1.35455400      -0.03973500
C        0.79916400       2.37002600       0.32664900
C        0.69363400       3.66002800      -0.13163300
C        1.62036500       4.63965900       0.20835500
C        2.67544200       4.31051300       1.02777600
C        2.80479800       3.02584600       1.50050700
Cl       4.11265600       2.52215600       2.54300300
C        1.85994300       2.05596500       1.14542900
N       -1.49142100       1.62463500      -0.00825200
C       -2.43472900       0.73229800      -0.33314600
C       -3.79016900       1.05514400      -0.28721300
C       -4.73412200       0.11774800      -0.62755800
O       -6.08511900       0.44284500      -0.58040300
C       -6.46534700       1.73598400      -0.18148900
21
Properties=species:S:1:pos:R:3 energy=0.0262612301313061 pbc="T T T"
C        6.20522300       0.59031600       2.10645500
C        4.88005700       1.01447800       1.62011900
C        4.55702100       2.34573600       1.59075900
C        3.32351900       2.79991400       1.14238500
C        2.41560600       1.83070700       0.71767800
C        2.71633600       0.49846200       0.73826300
C        1.74776900      -0.54285900       0.28466200
C        2.09561700      -1.92014200       0.32034500
S        0.50267000      -2.61147000      -0.35145800
C       -0.28228500      -1.16425400      -0.55261900
N       -1.63953200      -0.88594400      -1.06201100
C       -2.42222600      -2.00061700      -1.44844400
C       -3.90248100      -1.79522300      -1.22464200
C       -4.36245200      -0.40571100      -1.52052100
C       -4.87563300       0.29341100      -0.33333900
N       -4.03786900       0.49862500       0.77744100
O       -6.04782300       0.70129900      -0.31384500
C       -3.28064500       0.46490500      -2.12975400
C       -2.10309000       0.44770700      -1.14596500
N        0.57663800      -0.24377600      -0.15059300
C        3.93358100       0.08443600       1.18320800
24
Properties=species:S:1:pos:R:3 energy=0.3265376641326883 pbc="T T T"
C        5.96544800       2.35374100      -0.45432700
C        4.47085800       2.50817300      -0.59341600
C        3.75520200       2.34536800       0.73348200
C        3.99655500       0.98549600       1.34731400
N        3.52998100      -0.07418100       0.47790000
C        4.27816500      -0.67550200      -0.46446300
N        3.55561000      -1.60912600      -1.09236200
C        2.33351100      -1.57697600      -0.51797600
C        1.17995600      -2.32009700      -0.76134700
C        0.02161900      -2.12443900      -0.04917000
N       -1.10922600      -2.92502000      -0.35942100
C       -2.38987700      -2.86436400       0.25852500
C       -2.95535100      -1.50260300       0.05071300
C       -3.69348700      -1.20051900      -1.08574400
C       -4.23171000       0.05049200      -1.30648100
C       -4.05229300       1.06455000      -0.38885200
O       -4.60107800       2.32988300      -0.61995100