30
Properties=species:S:1:pos:R:3 energy=0.5306282510621704 pbc="T T T"
C       -5.46351100       2.35033500       3.84441300
C       -4.77627100       1.73661500       2.66992200
C       -4.49801900       0.38456500       2.66391500
C       -3.86439800      -0.21326000       1.59469400
C       -3.48470900       0.51829600       0.49032600
O       -2.84088200      -0.11178500      -0.58648700
C       -2.45388300       0.64697200      -1.71769200
C       -1.79181800      -0.33001400      -2.68493400
N       -0.65599100      -0.89151300      -1.98025400
C        0.58779700      -0.38092100      -1.98616800
C        1.08471100       0.84351200      -2.69359100
C        0.94177000       2.07260900      -1.79834200
N        1.73606900       1.82209700      -0.60643800
C        3.13904500       1.58881400      -0.69498400
O        3.63906900       1.61253100      -1.84715900
N        3.95454000       1.34128500       0.42735200
C        5.36516400       1.11565000       0.24509700
C        5.99697100       0.51870100       1.48377800
C        5.09789800      -0.51678500       2.11389000
C        3.71098000      -0.01453600       2.39447900
C        3.39999700       1.30992000       1.75754500
N        1.36826500      -1.17709700      -1.21843500
C        0.63305000      -2.20111800      -0.71596500
C        0.92373300      -3.27041600       0.10387400
C       -0.03963900      -4.18536300       0.46734900
C       -1.31335700      -3.99349600      -0.02042000
C       -1.59535300      -2.92192100      -0.83940900
C       -0.63902800      -1.99969600      -1.20987500
C       -3.76121600       1.86968900       0.49297200
C       -4.40098400       2.47633300       1.57127900
28
Properties=species:S:1:pos:R:3 energy=0.5306282510621704 pbc="T T T"
C       -8.45059600       0.72461700       0.48654000
C       -8.08431900      -0.69880100       0.05872900
O       -6.91908400      -0.57533100      -0.74100700
C       -5.79691700      -0.01368900      -0.14806200
O       -5.78571500       0.37941900       1.05093000
C       -4.57779600       0.12658900      -0.95062200
C       -4.10328000      -1.20090500      -1.43044500
C       -3.21380800      -1.91747400      -0.43314600
N       -2.15310200      -0.99820200      -0.07984900
C       -0.78020500      -1.29456500      -0.28282000
O       -0.46178300      -2.39601400      -0.78869700
C        0.27316200      -0.34569500       0.08402400
N        1.60138700      -0.79964000      -0.18660100
C        2.75754700      -0.05308700       0.08504600
O        2.64871500       1.08363100       0.59569900
N        4.07802700      -0.51414000      -0.18833300
C        5.22442700       0.27355800       0.10210000
C        5.17136300       1.52900900       0.66257200
C        6.34032100       2.25135600       0.92279900
C        7.56598500       1.72994900       0.62756400
C        7.63520900       0.47346400       0.06579400
C        6.46439300      -0.24803800      -0.19396100
Cl       6.56105300      -1.84372900      -0.90783300
C        0.08265600       0.35721400       1.41118100
C       -0.03794400       1.70942400       0.74276200
C        0.02111900       0.99905100      -0.59372200
C       -2.53369900       0.27096600       0.50374700
C       -3.52711700       0.99106500      -0.34497200
23
Properties=species:S:1:pos:R:3 energy=3.4011973816621555 pbc="T T T"
C        6.38819900      -1.07440600      -0.08340100
N        6.19055100       0.35231700      -0.10752600
C        7.30271900       1.17714200      -0.55390100
C        4.95791300       0.91264400       0.29023400
O        4.82327900       2.15179400       0.25623200
C        3.86017900       0.04539300       0.73428900
C        3.47364600      -0.89850900      -0.35647500
C        2.22751500      -1.68513000       0.06942700
N        1.17284200      -0.71503700       0.22710500
C       -0.20513700      -1.13268200       0.03850700
N       -1.29780200      -0.40014700       0.13802400
C       -2.46156100      -0.94041500      -0.06516500
C       -3.74073000      -0.16995200       0.03093900
C       -3.75128600       1.17410000       0.34492600
C       -4.90828200       1.90809900       0.44054600
C       -6.10542900       1.29632100       0.21843500
Br      -7.71444100       2.31369900       0.35062900
C       -6.11391800      -0.05829700      -0.09928100
C       -4.94151100      -0.77430500      -0.18967400
C       -2.47636500      -2.28105700      -0.38004400
S       -0.81806200      -2.67284700      -0.36250500
C        1.43055000       0.66394300       0.56701100
C        2.70713000       0.80733100       1.32211700
28
Properties=species:S:1:pos:R:3 energy=1.275362800412609 pbc="T T T"
C       -5.32545200      -0.93094400       2.92891100
C       -5.52380700       0.16402700       1.91578500
C       -6.69409200       0.89916200       1.91002100
C       -6.90981400       1.91952100       0.98600700
C       -5.89974800       2.17707400       0.06052800
C       -6.06513300       3.25106800      -0.95217400
C       -4.72748400       1.45573500       0.05061500
C       -3.69052400       1.77943000      -0.96134000
N       -2.57964000       0.90011000      -0.76656800
C       -1.50489300       1.12276100      -1.69771300
C       -0.58139400      -0.03907200      -1.85549800
C       -0.56863100      -0.96562100      -0.66019500
C        0.11123700      -2.25044800      -1.08888600
N        1.46791000      -2.01932300      -1.53021700
C        2.47545600      -1.46256400      -0.71816200
O        2.16886800      -1.14812600       0.46679000
N        3.80932900      -1.23591000      -1.15380300
C        4.80422100      -0.67054800      -0.30586500
C        4.56208600      -0.29844100       0.99598700
C        5.57995800       0.25091400       1.77741300
C        6.85532500       0.44274800       1.28740800
Br       8.24177500       1.19754000       2.37100400
C        7.09139200       0.06395700      -0.02918400
C        6.07848800      -0.47775200      -0.79210600
F        6.36244500      -0.82905900      -2.06708500
C       -1.97847200      -1.34221600      -0.23524500
C       -3.01256200      -0.47841300      -0.91936900
C       -4.54684300       0.44927600       0.98294200
28
Properties=species:S:1:pos:R:3 energy=3.353406717825807 pbc="T T T"
C        7.10463500       2.57145100       2.42097000
C        5.97412900       1.83743400       1.79661700
C        4.68016200       1.90379400       2.27178600
C        3.64207000       1.20525100       1.66628600
C        3.88794600       0.42942400       0.57427600
C        2.85104800      -0.34009700      -0.12468800
C        1.59514000      -0.34917300       0.24015500
C        0.57450300      -1.13700800      -0.48771900
N        0.78048800      -1.91271600      -1.56766500
C       -0.37515300      -2.48023800      -1.96582900
C       -0.71770600      -3.33873300      -2.98986400
C       -2.04019100      -3.72059200      -3.09428400
C       -2.98445700      -3.25669200      -2.20208600
C       -2.63775900      -2.40648200      -1.19017200
C       -1.32018800      -2.01666000      -1.07382500
N       -0.72748100      -1.20197200      -0.18234900
S       -1.49123100      -0.36682700       1.14296700
O       -2.18799100      -1.41288700       1.99817800
O       -0.49403900       0.35458500       1.97091600
C       -2.70038300       0.74313000       0.59773400
C       -4.01624300       0.41694400       0.42202300
C       -4.93072700       1.36427800      -0.01974700
C       -4.55163900       2.66079900      -0.29655300
Br      -5.78750000       3.97566600      -0.90301000
C       -3.21672500       3.00195300      -0.12108800
C       -2.31950200       2.05257400       0.31777000
C        5.18069800       0.36403000       0.10074100
C        6.22809800       1.05876600       0.69845800
33
Properties=species:S:1:pos:R:3 energy=3.4011973816621555 pbc="T T T"
N        0.75718200      -2.12281400       0.18767900
C        1.19821900      -0.95767600       0.50984200
C        0.29291400       0.12061100       0.41523500
C        0.74075400       1.36659100       0.75257900
C        2.06946100       1.53265000       1.17704400
C        2.88472200       0.42695100       1.24027600
N        2.45772800      -0.80321900       0.91169000
C        3.36541600      -1.95853400       0.99443500
C        4.06595500      -2.11261100      -0.33476800
C        4.85805000      -0.90681200      -0.68687900
C        4.25166500       0.09833800      -1.40407700
C        4.93046800       1.25634100      -1.76962800
C        6.24592700       1.42438600      -1.41562900
C        6.86869800       0.42838400      -0.69763000
C        6.17927200      -0.72488800      -0.33805500
O       -0.10874300       2.44967700       0.67517800
C       -1.42591900       2.29991400       0.25652800
C       -2.17873700       3.45411300       0.21925000
C       -3.47808000       3.37178300      -0.18348500
C       -4.02678500       2.16637500      -0.54454100
C       -5.36216600       2.08140600      -0.95905600
C       -5.94016500       0.88820700      -1.32742100
C       -5.14545600      -0.23716100      -1.27287600
C       -3.83348800      -0.15696700      -0.86614800
C       -3.23900700       1.02363600      -0.49487500
C       -1.92090600       1.05705400      -0.09442100
C       -1.07098500      -0.11029700      -0.02874000
C       -1.66759700      -1.35349500       0.45676500
C       -2.01571400      -2.30970400      -0.47187500
C       -2.58133500      -3.50751600      -0.11245600
C       -2.80072200      -3.74470100       1.22093800
C       -2.46756500      -2.81282900       2.19766800
C       -1.90306100      -1.62719300       1.78745000
41
Properties=species:S:1:pos:R:3 energy=1.7439688053917064 pbc="T T T"
C      -11.49616800      -0.05957700       0.07064600
O      -10.30602300      -0.70001500       0.51279500
C       -9.08308400      -0.17220800       0.07463100
C       -9.02047900       0.92884300      -0.75611000
C       -7.78606400       1.42118100      -1.16796200
C       -6.60424400       0.84604500      -0.77467500
N       -5.34083800       1.33427300      -1.18438900
C       -4.11751500       0.73013300      -0.77094600
N       -4.14975600      -0.34419900       0.03833600
N       -3.05385200      -0.95533100       0.46129700
C       -1.81856100      -0.54195300       0.10886200
C       -0.63497300      -1.24298300       0.59649300
C       -0.53449400      -1.61387600       1.93018700
C        0.57004500      -2.27746300       2.42431100
C        1.62667700      -2.59604600       1.58462100
C        2.83527300      -3.31159700       2.08156300
C        1.54171000      -2.23464900       0.25859400
S        2.89029500      -2.64740800      -0.78736000
O        3.04279100      -4.14187400      -0.73202300
O        2.50759000      -2.28307600      -2.19322600
N        4.35156800      -1.94158200      -0.28562300
C        4.31370900      -0.49256500      -0.29140100
C        5.61647700       0.08039900       0.15565000
N        6.72692700      -0.57801600       0.52992800
C        7.69411000       0.29443300       0.86451600
C        8.99878600       0.15921300       1.30805900
C        9.80053800       1.24454300       1.58757400
C        9.23545800       2.48581400       1.40250100
C        7.94605100       2.68387600       0.96453200
C        7.17652200       1.55807800       0.69575200
N        5.90870800       1.38491300       0.26293200
C        0.42502900      -1.56755600      -0.22524200
C       -1.75451600       0.55883700      -0.72139300
C       -0.51111800       1.01164300      -1.10376900
C       -0.43741800       2.11741300      -1.93810000
C       -1.55242000       2.76062900      -2.38455800
C       -2.81191900       2.30910100      -2.00260300
C       -2.89004900       1.20934900      -1.17265100
C       -6.67299400      -0.25257400       0.05444000
C       -7.89916000      -0.75631300       0.47459500
H        5.26737800       2.17666900       0.04921800
46
Properties=species:S:1:pos:R:3 energy=0.47000362924573563 pbc="T T T"
C        2.24366500      -4.84623400       2.17866500
C        2.08945600      -5.41945700       0.76982600
C        2.78491500      -6.73830400       0.62143700
C        0.60039600      -5.58104100       0.55266100
O        2.60018600      -4.46913800      -0.13901400
C        2.01316300      -3.21910100      -0.20099100
O        1.02650700      -2.98758800       0.55151300
N        2.45568300      -2.19591400      -1.04354500
C        1.75001600      -0.85360900      -1.04830600
C        0.44616700      -1.19941000      -0.44801800
C       -0.64347100      -0.26444200      -0.30279700
C       -0.65848700       0.87192600       0.49545000
C       -1.80010700       1.61354300       0.68076500
C       -3.02379400       1.27053100       0.07401300
O       -4.09449900       2.01353400       0.28612500
S       -5.29248900       2.07296800       1.43150500
O       -5.20239300       3.29811300       2.31093500
O       -5.31077100       0.70195400       2.42790800
C       -6.83597100       2.14023600       0.57059700
C       -7.45524700       3.37957600       0.34708000
C       -8.62710000       3.48411400      -0.40598400
C       -9.18878300       2.33697500      -0.94688000
C       -8.59955200       1.10337300      -0.73273200
C       -9.18368600      -0.04222400      -1.23326800
N       -8.63404400      -1.22571700      -0.99715000
C       -7.48327200      -1.35132600      -0.25812000
C       -6.91140700      -0.20917700       0.23661600
C       -7.41919700       1.03282200       0.03183000
C       -3.02413600       0.13561500      -0.73070800
C       -1.89023900      -0.59329400      -0.91027000
C        2.53377700      -0.21292500       0.11217200
O        1.95044300       0.09244100       1.16015000
N        3.92457300       0.00602000      -0.03301800
C        4.70137400       0.63373400       0.99241800
C        6.03611400      -0.09552700       1.23577000
N        6.60419400      -0.40809800      -0.08077100
C        6.44868000       0.84824500      -0.84451800
C        7.31449100       1.89193300      -0.26086600
C        8.18703900       2.52441500      -1.13938000
C        9.01416700       3.48602000      -0.63197100
C        9.01351600       3.84009900       0.68916500
C        8.12758800       3.18839600       1.54027700
C        7.27729500       2.20783300       1.05189100
C        5.75293600      -1.37559200      -0.74417000
C        4.55729100      -0.53904500      -1.24756700
H        1.82501300      -0.34725700      -1.96241100
34
Properties=species:S:1:pos:R:3 energy=2.949164637737656 pbc="T T T"
O        0.30679700       1.21002200      -2.71456400
C        0.22769300       0.26919600      -1.82242900
C       -1.08460600      -0.38525800      -1.65022300
C       -2.03428500       0.05758200      -2.77653500
C       -3.32570800      -0.35502800      -2.15075800
O       -4.35058900      -0.78909200      -2.69671900
N       -3.19719800      -0.16884600      -0.72550300
C       -4.23480700      -0.29160200       0.23089600
N       -4.14056700      -0.71851200       1.50782800
N       -5.34444700      -0.69580600       2.08347000
C       -6.25064400      -0.25997600       1.20771100
C       -7.61924200      -0.03855500       1.25737200
C       -8.29266200       0.42186900       0.15964200
C       -7.66044700       0.69222500      -1.02260500
C       -6.27735400       0.46680000      -1.05478200
C       -5.57130400      -0.00149400       0.03832900
C       -1.81083500       0.18110600      -0.43855800
N        1.38060300      -0.04881700      -1.11647200
C        2.62210600       0.74434900      -1.40052300
C        3.50850200      -0.33758100      -2.09061000
C        3.91673700      -1.34868500      -0.99105400
C        4.17142700      -0.56770300       0.25239400
N        3.38552600      -0.07726000       1.21362800
O        4.13179900       0.45194200       2.15474500
C        5.41511900       0.33729400       1.84725900
C        6.58648700       0.76489300       2.50539500
C        7.82632500       0.55862900       1.97671100
F        8.99384600       0.97208500       2.52340700
C        7.89261900      -0.12420100       0.71925200
C        6.71631500      -0.53617800       0.09851300
C        5.49562800      -0.30526700       0.65689400
C        2.57814600      -2.08096700      -0.70635500
C        1.58613000      -1.08485000      -0.16906800
H       -5.54710900      -0.97167400       3.09331200
25
Properties=species:S:1:pos:R:3 energy=2.7053799725463312 pbc="T T T"
N        4.62985000      -0.36922200       1.82250400
C        5.84726900      -0.62115500       1.14848900
O        6.86018500      -0.97274100       1.80247000
C        5.97937300      -0.48646800      -0.31100000
C        5.68031500       0.90065100      -0.80788900
C        4.21279800       1.23468400      -0.63298000
N        3.44228500       0.12502900      -1.09219300
C        2.02435100       0.11911100      -0.81366500
N        1.31873300       1.03610600      -0.16733800
C        0.05279500       0.87243600      -0.00608400
C       -0.52711900      -0.25519500      -0.51318200
C       -1.94410600      -0.66587900      -0.45824800
C       -2.35181000      -1.84887000      -1.03022200
C       -3.68662300      -2.25404200      -0.98854200
C       -4.57885200      -1.43807900      -0.36077100
C       -4.18783800      -0.23831400       0.22377800
N       -5.12881800       0.58326400       0.86436900
C       -4.86554200       1.84861200       1.51040900
C       -6.21335400       2.47435800       1.78438500
C       -7.16293800       1.68375000       0.88682600
C       -6.56107200       0.29332500       0.98918100
C       -2.85059500       0.15208300       0.17346100
S        0.82592900      -1.03020100      -1.20981400
C        4.03029400      -0.97115100      -1.81394700
C        5.15448900      -1.54332700      -0.99999700
30
Properties=species:S:1:pos:R:3 energy=1.1631508098056809 pbc="T T T"
C        7.89048800       1.58726300       1.08782100
C        7.28502800       0.32010000       0.58114800
O        8.07897200      -0.54495200       0.13076400
C        5.85055200       0.16030600       0.63480700
C        5.14778200      -0.37832500       1.68549300
C        5.69130200      -0.89971900       2.96014100
N        3.84621700      -0.35668900       1.36339000
C        3.67278700       0.17589400       0.14173200
C        2.41142000       0.37344000      -0.56334900
O        2.40633200       0.89499500      -1.72534600
N        1.16103700       0.01624600      -0.03133300
C       -0.06973200       0.21300700      -0.72824800
C       -0.14180200       0.77191500      -1.98738200
C       -1.34635100       0.95127100      -2.64009700
C       -2.53364300       0.57268700      -2.04736700
C       -2.46997200       0.00996000      -0.78149600
S       -3.97104100      -0.47389300      -0.02057900
O       -3.79443100      -0.39392200       1.48024400
O       -4.31551700      -2.06458600      -0.42215800
N       -5.23325400       0.59265800      -0.47736700
C       -6.14265300       0.03871800      -1.43201700
C       -7.52050600       0.03058300      -0.79711200
C       -7.16618100       0.10398200       0.69381800
F       -6.78367900      -1.15743000       1.06352800
C       -5.98922400       1.05503600       0.65541500
C       -1.25856900      -0.16376800      -0.13986600
C        4.92234100       0.50351400      -0.32430200
C        5.29407700       1.12808200      -1.63588500
H        3.09427400      -0.71121300       1.99403800
H       -8.01605200       0.50352500       1.28156200
31
Properties=species:S:1:pos:R:3 energy=2.066862759472976 pbc="T T T"
C        7.34771400      -0.28021100       2.31963200
C        7.44047600       0.16376300       0.88720400
N        6.75537600       1.42092100       0.65700400
C        6.88785400       1.80353800      -0.72532900
C        6.14701000       3.13613300      -0.90207100
C        5.38976900       1.43367100       1.09175800
C        4.49335000       0.52612400       0.27570800
O        3.19571600       0.62025300       0.77779600
C        2.14013600      -0.10319700       0.23080500
C        2.30648100      -0.96111000      -0.83368400
C        1.26819900      -1.68150600      -1.38428800
C       -0.02553900      -1.56257700      -0.86700100
C       -1.04325100      -2.28903100      -1.43932900
O       -0.84524600      -3.07622500      -2.42794100
C       -2.30056300      -2.12921400      -0.89271200
C       -3.34208300      -2.85215000      -1.44104700
C       -4.60009800      -2.71577700      -0.90809300
C       -4.78928300      -1.86713000       0.15289500
Cl      -6.41744400      -1.73102400       0.79436000
C       -3.74438400      -1.16384000       0.67665300
C       -2.46310100      -1.25771900       0.18616300
N       -1.44875700      -0.57478700       0.70704500
C       -1.61818700       0.34670100       1.79993500
C       -1.80954700       1.76210900       1.45380500
N       -2.98577600       2.08532200       0.67983200
C       -2.91685900       3.50775700       0.27129500
C       -4.12723800       3.86600600      -0.55748700
C       -4.18649400       1.96976200       1.54217100
C       -5.37625500       2.29910400       0.68999700
C       -0.19580000      -0.71153700       0.19011800
C        0.86382300       0.01587100       0.74353600
28
Properties=species:S:1:pos:R:3 energy=2.128231705849268 pbc="T T T"
O       -3.63955200       0.65057900       1.90353900
C       -3.17970300       1.62822200       1.26352300
C       -3.93045800       2.92957800       1.30038500
C       -3.66983000       3.73250300       0.06746200
C       -2.21930500       3.85679900      -0.25849100
C       -1.50663400       2.53999500      -0.20262900
C       -1.93155600       1.51131400       0.49021300
C       -1.23594300       0.21459900       0.55513800
C       -2.10054000      -0.95312700       0.40537200
C       -1.94545700      -2.02412500       1.26698900
C       -2.72393100      -3.15638900       1.18727900
C       -3.70195300      -3.23494100       0.21049100
C       -3.88017800      -2.18507700      -0.66171100
C       -3.08121400      -1.06391300      -0.55326900
I       -3.38689000       0.49737100      -1.89712200
N       -0.03538300       0.16622200      -0.21941900
C        0.41772800       1.15670500      -0.91632900
N        1.62742100       0.93437400      -1.62695700
C        2.68500400       0.17471800      -1.03768700
N        2.73860300      -0.41365300       0.16967600
C        3.92964200      -1.03362800       0.32891300
C        4.50075400      -1.77524900       1.35677700
C        5.77053100      -2.28738600       1.20784700
C        6.46781900      -2.06174400       0.04062900
C        5.87743600      -1.32343900      -0.96123600
C        4.60961400      -0.79596800      -0.84705500
O        3.82715200      -0.07532900      -1.62265500
N       -0.28317400       2.39099000      -0.94967300
26
Properties=species:S:1:pos:R:3 energy=1.9947003132247452 pbc="T T T"
C        6.26447500       0.42594800       0.55273900
O        5.45618400       1.45421000       1.07673500
C        4.08010100       1.33101900       0.95925700
C        3.49316200       0.23338700       0.34606800
C        2.12138800       0.13109900       0.24001300
N        1.53727400      -1.01675800      -0.40015200
C        0.12133600      -1.10103400      -0.49798900
N       -0.70995100      -0.15211500      -0.01739800
C       -2.04171200      -0.23984900      -0.11396200
C       -2.90720200       0.81739800       0.42374600
C       -4.27069900       0.72222900       0.32200100
C       -5.06512800       1.73432600       0.83801300
N       -4.56000300       2.82393600       1.44388500
C       -3.22112800       2.91147900       1.54060700
C       -2.38921200       1.93348700       1.04436400
N       -2.55341700      -1.32581300      -0.71810700
C       -1.80341000      -2.32148000      -1.22689800
C       -2.32830600      -3.42058800      -1.83861800
C       -1.51775600      -4.41527200      -2.34464700
C       -0.15495700      -4.27350500      -2.21781600
C        0.40648800      -3.19194700      -1.61420000
C       -0.42986400      -2.20371900      -1.11260600
C        1.35909600       1.15160600       0.76154100
C        1.92346300       2.24844500       1.37346400
C        3.29810000       2.34124400       1.47451200
F        3.89167800       3.40226500       2.06822100
30
Properties=species:S:1:pos:R:3 energy=1.7749523509116738 pbc="T T T"
F        2.01151000       1.53472700      -1.42954000
C        2.20221900       0.47889800      -0.58871600
C        1.15070300      -0.17535100       0.01307600
C        1.31885900      -1.24840700       0.86941300
N        0.16769800      -1.83177900       1.42084800
C       -1.14703300      -1.42524500       1.18322800
N       -1.48295600      -0.40549600       0.38192000
C       -2.75052700      -0.03019000       0.16628600
C       -3.04709500       1.08696400      -0.71660500
C       -4.33344800       1.50269100      -0.96349200
C       -4.62700700       2.55769400      -1.79640800
N       -3.63658400       3.22547700      -2.40533900
C       -2.37327600       2.83560400      -2.17776400
C       -2.04727100       1.79977200      -1.36260700
N       -3.77033100      -0.67188700       0.75585000
C       -3.51847600      -1.72280600       1.58818400
C       -4.53303800      -2.40152000       2.20729000
C       -4.31113200      -3.46460000       3.05151000
C       -2.99299700      -3.82575300       3.25219600
C       -1.96891300      -3.15752200       2.64090500
C       -2.21496000      -2.09587100       1.79951700
C        2.59802500      -1.66047100       1.11440700
C        3.67387800      -1.01976300       0.52188600
C        3.50126800       0.04868600      -0.33042200
N        4.55597400       0.73426800      -0.95775000
C        4.64967600       0.79967900      -2.42374100
C        5.91658500       1.55883000      -2.79253300
C        5.80861500       2.94701900      -2.15274400
C        5.61572700       2.84899400      -0.66508600
C        5.58430600       1.39834300      -0.20376700
40
Properties=species:S:1:pos:R:3 energy=3.4011973816621555 pbc="T T T"
C       -6.07696900      -0.74803000      -3.38307600
C       -5.85835900       0.71375400      -3.03286300
O       -5.26751100       0.80721100      -1.71887800
C       -4.04388300       0.17524700      -1.54633500
C       -3.41542900      -0.50736100      -2.56214700
C       -2.17752900      -1.13684600      -2.35204600
N       -1.58642300      -1.82065300      -3.34119700
C       -0.41514400      -2.44635700      -3.14327500
C        0.24709200      -2.43602100      -1.95378000
C        1.51374900      -3.10424400      -1.72707700
N        2.53174800      -3.62843100      -1.53887600
C       -0.35421200      -1.72381500      -0.90153400
N        0.32152700      -1.74110900       0.34634600
C        1.48171000      -0.94608000       0.52551700
C        2.22123900      -0.98222800       1.68413700
C        3.36447400      -0.25196100       1.75383900
C        3.82036000       0.53974700       0.68716200
O        4.92568500       1.23873000       0.73546800
C        6.00163400       1.91907700       0.78262300
C        7.25608000       1.11106300       1.03530800
C        8.46119400       1.75057100       1.10311500
C        9.65885900       1.06827500       1.34015300
C        9.55249300      -0.28813500       1.49933500
C        8.33519000      -0.91073000       1.42740400
N        7.21140800      -0.22109300       1.19978400
C        3.03126100       0.54933300      -0.47045400
Cl       3.55056700       1.54576600      -1.84528200
C        1.89293900      -0.16792900      -0.56397800
C       -1.55335700      -1.09095800      -1.12859100
C       -2.18882000      -0.39883600      -0.09912700
C       -3.40012000       0.21280600      -0.31021400
N       -4.10260900       0.90322500       0.72281100
C       -3.52001000       1.00408200       2.00868300
O       -2.38758100       0.48239400       2.18148700
C       -4.22573000       1.69898600       3.10887600
C       -5.40607500       2.21507200       2.86677300
C       -6.04921400       2.12107400       1.52209300
N       -7.28728500       1.42061800       1.59231900
C       -8.29105600       2.14694000       2.30499300
C       -7.77189600       0.92684400       0.34483800
30
Properties=species:S:1:pos:R:3 energy=2.942331496826876 pbc="T T T"
C        5.94050300       2.88774500       1.65014200
C        5.30797000       2.71874700       0.27124200
O        4.74511900       1.42187600       0.23992600
C        5.44673200       0.24731600       0.40772400
O        6.67691500       0.31954700       0.60470100
C        4.77499800      -1.06619700       0.35798500
C        5.36311600      -2.30042300       0.51111100
N        4.37377200      -3.23008800       0.38751900
C        3.19285900      -2.61349900       0.16315400
C        1.90220900      -3.07557600      -0.03177400
C        0.91887000      -2.10080500      -0.23956500
C        1.20878500      -0.76698600      -0.25046900
C        0.18087200       0.24054200      -0.47003900
C        0.27842100       1.47949100       0.11708200
N       -0.68068300       2.39544700      -0.10251400
C       -1.75010800       2.16008900      -0.88023300
C       -1.90393300       0.92250100      -1.50272800
N       -3.02409600       0.67380300      -2.32859700
S       -4.63085700       1.07930000      -1.89078900
O       -4.77760800       2.55440200      -1.60133700
O       -5.58680100       0.70490000      -2.99284800
C       -5.10999100       0.22139200      -0.45471500
C       -5.72405700      -1.00583100      -0.57121200
C       -6.12293400      -1.72938700       0.52773700
C       -5.90298900      -1.21221300       1.80719300
C       -5.29043900       0.00936000       1.88285000
C       -4.87938100       0.75802200       0.79783800
C       -0.90573000      -0.02334800      -1.27079600
C        2.50160200      -0.37044100      -0.05211400
N        3.47686300      -1.29968600       0.15213000
31
Properties=species:S:1:pos:R:3 energy=2.5649493574615367 pbc="T T T"