28
Properties=species:S:1:pos:R:3 energy=0.0 pbc="T T T"
C        0.84489900      -0.45360900      -1.56591000
C        0.80634300      -0.56479900      -0.07457100
C       -0.23172900      -1.07804400       0.68922600
C       -1.50833700      -1.56237900       0.16096800
O       -1.93701900      -2.69136100       0.40809000
N       -2.26458400      -0.67806300      -0.66437400
C       -3.59549600      -1.10650100      -1.22286500
C       -4.39078600      -1.40095400       0.05745300
C       -5.87186600      -1.37657700      -0.14211700
C       -6.34345000      -0.00803900      -0.63517800
C       -6.00380900       1.11115500       0.30305500
C       -4.49667300       1.06934100       0.56459300
C       -4.03466400      -0.27573700       1.04139500
C       -3.81485100       1.36459300      -0.77977000
C       -4.14574200       0.22804400      -1.75949400
C       -5.62722300       0.20061400      -1.96267700
C        0.16742900      -1.00430200       2.00171600
N        1.36691400      -0.48952000       2.06389800
N        1.76315400      -0.22029400       0.79623600
C        3.06343900       0.28567100       0.56386500
C        3.81965700       0.86009300       1.57672200
C        5.12504400       1.26290300       1.40879100
C        5.77113100       1.11325300       0.18371600
C        7.16046700       1.45942800       0.02175300
O        7.75541800       1.90032700       1.09635600
O        7.89390400       1.36170800      -1.13809600
C        5.01640000       0.54502700      -0.83012600
C        3.71203000       0.14802200      -0.64513600
25
Properties=species:S:1:pos:R:3 energy=0.0 pbc="T T T"
C       -4.41339200      -1.07463500       2.17569200
C       -3.82893800      -0.39370200       0.97623900
C       -2.31944500      -0.50212500       1.06619800
C       -1.74563400       0.19438400      -0.15731900
C       -0.28080100       0.11373500      -0.12425800
C        0.42337100       1.11310400       0.50518800
C        1.78662300       1.03981700       0.53510400
C        2.46014400      -0.01311500      -0.05160400
C        3.92376700      -0.04860400       0.00337400
C        4.63019700       0.46898200       1.06331500
C        6.02996000       0.42524400       1.08374100
C        6.72760500      -0.13875100       0.03931100
Cl       8.49233800      -0.18507100       0.07327400
C        6.02247900      -0.66034900      -1.02792400
C        4.62105400      -0.61156800      -1.03833200
C        1.74625600      -1.00868800      -0.67887600
C        0.38622500      -0.94080600      -0.71168900
C       -4.25417000      -1.03593600      -0.29710100
O       -5.02860500      -2.01972400      -0.30394500
N       -3.77566600      -0.52699600      -1.53307500
O       -4.09817400      -1.03489700      -2.74235200
S       -4.30164500       1.30569200       0.91365600
C       -3.77721000       2.21791900       2.31760100
O       -3.63991300       1.89876100      -0.31163500
O       -5.78642600       1.41732800       0.69521100
34
Properties=species:S:1:pos:R:3 energy=0.0 pbc="T T T"
O       -7.45989600      -1.97207200      -0.52417400
C       -8.42341100      -1.17272800      -0.40045900
N       -8.22423500       0.16941300       0.01427900
C       -6.91458100       0.67144200       0.31184000
C       -5.79639000      -0.14882400       0.20753900
C       -4.55813400       0.35110900       0.49824600
C       -3.29475800      -0.42938900       0.42018700
O       -2.59092000      -0.17412400       1.58885600
C       -3.50122300      -1.87735700       0.26432700
N       -2.27742900      -2.59771300       0.13050900
C       -1.55342000      -2.46717900      -1.05000100
C       -0.82512800      -1.29320200      -1.46619800
C        0.30975900      -0.82551700      -0.67681500
C        1.60538200      -1.32957200      -0.88704900
C        2.65849100      -0.86093800      -0.14934900
C        2.56681900       0.10449000       0.82710600
N        3.64394100       0.59501000       1.59732600
C        4.99740400       0.22734100       1.35660900
C        5.51202800       0.77211600       0.07134600
O        4.85391700       0.37848700      -1.06782200
C        6.95705000       0.39534600      -0.09759600
C        7.65177400      -0.21230900       0.91978600
C        8.97575100      -0.55669100       0.76141100
C        9.62398000      -0.29478600      -0.42623600
C        8.92832500       0.31970500      -1.46047200
C        7.60092900       0.65748500      -1.28119800
C        1.26936700       0.59787600       1.02615800
C        0.20968400       0.13556400       0.29340900
C       -4.45420200       1.67113900       0.89121200
C       -5.54815400       2.50160800       1.00057400
C       -6.78687800       1.97797500       0.70351300
O       -7.88093400       2.84901100       0.82559500
H       -2.74744000      -0.05001500      -0.47619100
H        5.47253000       1.88730000       0.10685600
27
Properties=species:S:1:pos:R:3 energy=0.07136054421768707 pbc="T T T"
C        5.59145300       3.41468800       0.49223500
C        5.59761900       2.06834000      -0.10989400
C        5.07075600       0.84927200       0.32045000
C        5.37916200      -0.04198900      -0.66647600
C        5.08608600      -1.49016600      -0.75987600
C        4.33591800      -2.09009300       0.31498500
C        2.96824500      -1.67343500       0.61139700
O        2.09428800      -1.92807900      -0.48759600
C        0.73232000      -1.60862500      -0.33681400
C        0.28283600      -0.37117300      -0.76765800
C        1.30775800       0.52597500      -1.35130400
C       -1.04643400      -0.02711800      -0.62623300
C       -1.96686500      -0.88586700      -0.05902700
C       -3.34689500      -0.48921100       0.19188300
N       -4.41875900      -1.16455600       0.60791300
O       -5.43718400      -0.36731400       0.78793700
C       -5.10236400       0.84382200       0.51716000
C       -5.88433100       2.13660000       0.57575000
F       -5.62544700       2.95384300      -0.50616700
F       -5.40697300       2.79390700       1.72048900
F       -7.21022600       1.82257100       0.66007000
N       -3.81320900       0.77921000       0.14517200
C       -1.53145400      -2.09921400       0.36368300
C       -0.19255000      -2.49345000       0.23708600
C        0.30568700      -3.83169200       0.65895300
O        6.04395000       0.56664800      -1.63271700
N        6.18661400       1.80710400      -1.33070900
34
Properties=species:S:1:pos:R:3 energy=0.4188435374149659 pbc="T T T"
C       -0.36559200      -2.71025700      -0.29028700
C       -0.10074600      -1.45593100       0.51743700
C        1.33055000      -1.09897200       0.31059400
C        1.74272600      -0.46970900      -0.84333300
C        3.05654700      -0.12474900      -1.06770300
C        4.03352200      -0.39793100      -0.13299100
C        5.43857100      -0.05532700      -0.31724000
C        6.09222300      -0.29192600      -1.48178500
C        7.41955800       0.04529800      -1.61590000
C        8.11564000       0.62493200      -0.58562000
F        9.43463500       0.97925600      -0.65990900
C        7.47080500       0.87117600       0.59818500
C        6.14553600       0.52712700       0.71085300
F        5.48976700       0.76909200       1.89823400
C        3.60296500      -1.02893800       1.01792500
C        2.29568600      -1.37897900       1.25630600
N       -1.00164200      -0.38615400       0.16111500
C       -1.09472000       0.17564500      -1.16897600
C       -2.52336200       0.41137300      -1.58689600
C       -3.38317000       0.99398400      -0.52330400
C       -3.76058700       2.41514600      -0.95871100
C       -4.64061900       3.06776000       0.08615700
O       -4.97589000       4.35606100      -0.31784400
C       -4.64106300       0.21857500      -0.43397700
C       -5.81297300       0.64140700      -1.02756100
C       -6.98293800      -0.07846600      -0.94427000
C       -7.02656100      -1.26794600      -0.25304300
F       -8.19103600      -1.99206600      -0.16545800
C       -5.86748900      -1.70885900       0.34781900
C       -4.70864200      -0.97411600       0.25231100
O       -2.76236900       1.14287300       0.73681600
C       -1.87015700       0.17317200       1.15011900
O       -1.76104600      -0.25669000       2.32771100
H       -0.19813100      -1.73586000       1.59136900
28
Properties=species:S:1:pos:R:3 energy=0.03884353741496599 pbc="T T T"
C       -1.53181900       3.69568600       0.37579500
C       -0.63364000       2.59353800      -0.17922300
C       -0.15821600       1.67782700       0.92417600
C        0.69139600       0.64988300       0.28403000
C        0.22727300       0.05489100      -0.86704400
N        1.14854000      -0.83567200      -1.27461100
C        2.21151600      -0.85657900      -0.43636100
C        3.39256800      -1.57663800      -0.41070300
C        4.33226600      -1.38755100       0.60015600
Cl       5.83106700      -2.29627400       0.63931300
C        4.03442500      -0.45551000       1.56912800
F        4.93476800      -0.25922600       2.55727500
C        2.85815200       0.26095900       1.54269700
C        1.91670000       0.07655300       0.53648500
C       -1.10729100       0.51706400      -1.34853500
N       -1.28312400       1.94134800      -1.26658000
C       -1.38005300       0.09272000      -2.71478400
O       -0.73657900       0.35175900      -3.78495800
N       -2.54013600      -0.70852400      -2.71926300
C       -3.00647500      -0.79877600      -1.37804500
C       -4.11888400      -1.47530300      -0.84958700
C       -4.38716300      -1.42782700       0.49877600
C       -3.55285100      -0.70911000       1.32731400
Cl      -3.85043000      -0.61522200       3.06197500
C       -2.46444400      -0.04329200       0.83279300
C       -2.19326000      -0.09175900      -0.53296300
H        0.30627900       3.05949100      -0.60038100
H        1.05941500      -1.43445700      -2.12550200
28
Properties=species:S:1:pos:R:3 energy=0.0 pbc="T T T"
O       -5.31991100      -1.43168600       1.48579300
C       -5.23743900      -2.21714700       0.45350500
O       -6.05672900      -3.41582200       0.57600300
C       -4.44448700      -1.97929300      -0.68676700
O       -3.45850100      -1.02885200      -0.72378000
C       -3.46123200       0.23256000      -0.42612600
C       -4.52705600       1.05321800       0.10005900
C       -4.26101700       2.32799000       0.41230800
C       -3.06898900       2.92709800       0.29785000
Cl      -2.97063400       4.63505700       0.56989300
C       -2.01071800       2.15250900      -0.21473300
C       -2.17707200       0.85665100      -0.57883500
C       -1.25379500      -0.10927000      -1.27561300
N       -0.13448200      -0.39232300      -0.57396800
C        0.82637800      -1.19524300      -1.42158600
C        2.08773100      -0.40585800      -0.90002200
N        2.07865500      -0.76274000       0.55391200
S        3.76880500      -1.41843700       0.69981200
O        3.99285600      -1.81273300       2.03004300
O        3.87139100      -2.47005600      -0.35915500
C        4.59812600       0.03982500       0.24469600
C        4.90702200       0.99611400       1.16491400
C        5.42543500       2.15560600       0.83335900
C        5.72474500       2.50580300      -0.45188400
C        5.38763900       1.52739900      -1.45794900
C        4.82243200       0.29852500      -1.08573800
C        1.16137900      -1.74242700       0.95732600
C       -0.27053200      -1.32647000       0.59725500
27
Properties=species:S:1:pos:R:3 energy=0.027210884353741496 pbc="T T T"
C       -3.17428700       2.09580500      -2.02292700
C       -3.89900800       1.87639400      -0.71407300
C       -3.21961100       2.71033700       0.34769400
O       -3.80288000       2.57598200       1.58864200
C       -5.34490200       2.23011800      -0.88298800
O       -5.45887600       3.56443000      -1.26341000
N       -3.81840900       0.48419400      -0.31898600
C       -2.53717900      -0.07523400      -0.11045200
N       -1.37349500       0.61896200      -0.25948000
C       -0.23168300      -0.09706600      -0.01243200
S        1.30031200       0.82827400      -0.21185700
C        2.66706300      -0.29754800       0.15951600
C        3.98223200       0.36213600       0.02621900
C        4.01782400       1.68685700      -0.34528600
C        5.24243100       2.30724200      -0.47113300
C        6.38151600       1.57866300      -0.22064200
C        6.32571900       0.24603500       0.15228300
F        7.43691500      -0.47437000       0.39936100
C        5.10303600      -0.38934300       0.28242800
F        5.05927000      -1.67668700       0.64308300
N       -0.20052200      -1.36585500       0.34594800
C       -1.34201200      -2.09861600       0.50671800
N       -1.47333300      -3.35331500       0.85465700
C       -2.43478700      -3.98900400       0.99527500
N       -2.97004100      -5.28490100       1.33870700
S       -3.73686400      -2.64211700       0.56426100
C       -2.49842500      -1.42137200       0.27000200
30
Properties=species:S:1:pos:R:3 energy=0.027210884353741496 pbc="T T T"
O        7.20536600      -1.36801200       0.25163800
C        6.97404300      -0.38039400       0.98488200
O        7.99926500       0.05508900       1.80122400
C        5.66268100       0.25961800       0.95200600
C        5.34899100       1.34601000       1.73357600
N        4.12447900       1.89375600       1.66186500
C        3.17189700       1.41520000       0.84127000
C        3.42328600       0.33483100       0.03767300
C        2.46397300      -0.25077700      -0.87547600
C        2.93512500      -0.83448000      -2.02913400
C        2.03281000      -1.40822700      -2.92840000
C        0.66440700      -1.38320900      -2.64725400
Cl      -0.43907200      -2.11119300      -3.79564600
C        0.19461500      -0.79531000      -1.48605400
C       -1.25760200      -0.80886700      -1.25944400
O       -1.73759800      -1.78615000      -0.64086800
N       -2.12517600       0.19849100      -1.69178000
C       -3.51839500       0.33932100      -1.55546700
C       -4.11979500       0.42655800      -0.21312400
C       -5.63959000       0.58570600      -0.43424400
C       -6.38022200       0.58441800       0.87146300
C       -5.88595200       1.76099100       1.68563800
C       -4.39047900       1.62570300       1.90276600
C       -4.15845900       0.36811700       2.70356600
C       -4.62866900      -0.82427600       1.89055800
C       -6.12896600      -0.70179800       1.61866200
C       -3.95102700      -0.86564800       0.53917500
C       -3.62994500       1.60342800       0.60319800
C        1.10764200      -0.24739700      -0.63621700
C        4.68236700      -0.22533700       0.11394900
32
Properties=species:S:1:pos:R:3 energy=0.03401360544217687 pbc="T T T"
C        6.79417100      -0.50224900      -1.47031100
C        5.34497200      -0.16112100      -1.66029200
C        4.85355700       1.09186800      -1.43855300
C        3.51831300       1.36191000      -1.62494100
C        2.61143700       0.42142600      -2.03440600
S        0.91000800       0.75990000      -2.27351100
O        0.82847000       2.24863200      -2.54514600
O        0.52692500       0.04815200      -3.55665800
N       -0.00268500       0.27357100      -0.98859600
C       -0.13497800       0.54907200       0.34713300
C       -1.04568600      -0.15770900       1.16669700
C       -1.90230100      -1.24031200       0.69668300
O       -1.89620400      -1.63490100      -0.49463900
N       -2.78987500      -1.89819300       1.58764800
C       -3.67095700      -2.98005800       1.19944600
C       -3.38160600      -4.26001000       1.90960100
C       -5.10957200      -2.53935800       1.31047800
C       -6.00884200      -3.68252300       0.90144300
C       -5.30542700      -1.44814000       0.24913800
C       -5.43433400      -1.98798000       2.66698500
C       -0.94233300       0.37783000       2.42711700
C       -1.74470400      -0.09021100       3.61127600
N       -0.02776400       1.35179200       2.38777800
N        0.45740300       1.45434200       1.13469300
C        1.45291200       2.40934600       0.69499900
C        0.75772500       3.73471500       0.44775800
C        1.77824300       4.81270600       0.75863600
C        3.01181700       4.07951800       1.24742600
C        2.46301000       2.74495200       1.74123000
C        3.11966500      -0.86181500      -2.26054600
C        4.45465700      -1.12644800      -2.07283000
H       -3.48601300      -3.14870400       0.09892200
24
Properties=species:S:1:pos:R:3 energy=0.008435374149659867 pbc="T T T"
C        4.86550900       1.22632100       1.85508500
C        5.03213300       1.81692200       0.48183500
S        4.55998900       0.66930600      -0.80039300
O        5.37586900      -0.59286300      -0.56247600
O        4.84755700       1.19176800      -2.15992000
C        2.89441100       0.23649800      -0.58662500
C        1.85129900       1.04588300      -1.04973700
C        0.53593800       0.69060100      -0.87985900
C        0.20429900      -0.48490200      -0.24188700
C       -1.16498100      -0.91329400      -0.03593500
C       -1.56100200      -2.18764400      -0.34732300
C       -2.87780900      -2.56798900      -0.14682000
Cl      -3.41256800      -4.20744100      -0.54106700
C       -3.80721200      -1.69687800       0.35941900
C       -3.41665400      -0.41935400       0.67273700
C       -2.10302200      -0.03583700       0.47407000
O       -1.65282000       1.24389600       0.77395400
C       -2.59396500       2.16407200       1.29792000
C       -3.70212400       2.38791100       0.35098100
O       -3.82222900       1.86501200      -0.78222100
O       -4.71391900       3.26021600       0.74458700
C        1.22526600      -1.29936100       0.22376500
F        0.92035700      -2.47168200       0.85913500
C        2.51567700      -0.92116200       0.04077400
34
Properties=species:S:1:pos:R:3 energy=0.4395238095238095 pbc="T T T"
N       11.70168300       0.01153600       2.38708600
C       10.60767100       0.18008000       2.00889900
C        9.25135100       0.39281500       1.56612800
C        8.42107600      -0.68010200       1.29089500
C        7.11465700      -0.50913800       0.86394800
C        6.59328700       0.76178800       0.69736600
C        5.24102000       1.03500200       0.25511300
C        4.17281100       0.20773700       0.54747100
C        2.91324200       0.53739400       0.08858600
C        2.68163000       1.65454200      -0.64609600
N        1.40321200       2.03495400      -1.14144800
C        0.23763600       1.24679200      -0.88345200
O        0.34573100       0.19425200      -0.20169900
N       -1.05543100       1.57801000      -1.35345300
C       -2.16491600       0.74255500      -1.05386200
C       -2.07156900      -0.40056500      -0.28978000
C       -3.16787600      -1.19150700      -0.01813400
C       -4.41930900      -0.87897500      -0.49879600
C       -5.59414400      -1.69332500      -0.22976100
C       -5.60092800      -3.06422500      -0.32401500
C       -6.72750800      -3.82113400      -0.06524800
N       -7.83941500      -3.14621800       0.28970600
C       -7.90008900      -1.80858800       0.40027800
N       -8.91464700      -0.99563000       0.73814600
C       -8.41259800       0.25037500       0.68647700
N       -7.11975400       0.22393500       0.32681600
C       -6.75693600      -1.05342900       0.13685400
C       -4.52775600       0.27343200      -1.27256700
C       -3.41712300       1.05870700      -1.53711600
C        3.74613600       2.49076900      -0.94459200
C        4.98874700       2.16417600      -0.49106400
C        7.41723100       1.83188900       0.97042900
C        8.73644000       1.65530800       1.40165600
H       -9.88356200      -1.28321100       0.98630600
37
Properties=species:S:1:pos:R:3 energy=0.21768707482993196 pbc="T T T"
C       -6.00493800      -0.27027500       0.77559700
C       -5.34719800      -0.68603600      -0.53270500
N       -4.35787700      -1.71305600      -0.25835700
C       -3.00625600      -1.39980800       0.03419900
O       -2.20940300      -2.33270100       0.25683600
C       -2.59613300      -0.00485600       0.06724100
C       -3.32468100       1.14254400      -0.16860600
N       -2.49363400       2.18814400      -0.01877000
N       -1.26845400       1.80370300       0.30097700
C       -0.13123500       2.64096200       0.53360100
C        0.84852200       2.29868700       1.44224000
C        1.94042000       3.07942400       1.68279300
C        2.08683600       4.25167700       1.00583100
C        1.15373100       4.64337700       0.09664600
C        0.02887900       3.82789400      -0.14346800
C       -1.30179900       0.45287900       0.36104100
N       -0.22616300      -0.39741800       0.67923000
S        0.80061500      -0.96930900      -0.57735900
O        0.18979900      -0.66102900      -1.88865400
O        0.81977400      -2.48093900      -0.44596300
C        2.42285700      -0.33673600      -0.41651700
C        2.81035100       0.85789000      -0.95954700
C        4.12300600       1.33730000      -0.80651500
C        5.06577900       0.62587100      -0.10837800
C        6.43849400       1.07467500       0.08792000
C        7.44007300       0.42034900       0.77461900
N        8.54817800       1.20094800       0.70160900
C        8.20756400       2.27754100      -0.00472300
O        6.94932700       2.18842100      -0.36281900
C        4.65084700      -0.59411200       0.43925200
C        3.36978700      -1.06849500       0.29473200
C       -4.79956400      -3.09668100      -0.28686900
C       -5.97050300      -3.28373300       0.59186400
C       -7.19851600      -3.70494500      -0.17141100
C       -6.87380400      -5.01443500      -0.90363600
C       -5.88527500      -4.67188800      -1.97806200
C       -4.89940500      -3.62583400      -1.63939300
31
Properties=species:S:1:pos:R:3 energy=0.0 pbc="T T T"
O       -5.89873400       1.77035400       0.57337700
C       -5.76639500       2.51610000      -0.43483700
O       -6.89513800       3.23997200      -0.89607500
C       -4.48503400       2.64401600      -1.12970200
O       -3.44437600       1.93548800      -0.62559100
C       -3.36974400       0.56717900      -0.46887200
C       -4.34209300      -0.33047000      -0.78902500
C       -4.20708900      -1.68440700      -0.60628300
C       -3.04638500      -2.22005500      -0.07423000
C       -2.80612000      -3.65315200       0.17627700
F       -1.59799900      -4.04390000      -0.35703300
F       -3.78636500      -4.40522100      -0.50958900
F       -2.84224200      -4.01142200       1.50097900
C       -2.06281700      -1.31931000       0.25398000
C       -2.17953800       0.01994900       0.08017600
C       -1.11494400       0.95144200       0.43016500
N        0.10459500       0.34567400       0.95290900
C        0.63523500      -0.58504400      -0.01212600
C        2.07965500      -0.43729600      -0.31151500
N        2.44214700       0.88743700      -0.82597300
S        3.85985100       1.47822300      -0.00181500
O        4.12572000       2.86276400      -0.52249000
O        3.53679500       1.54836500       1.44587500
C        5.25395800       0.51480100      -0.21936700
C        5.46614100      -0.68395900       0.44855000
C        6.64406500      -1.40771300       0.27868400
C        7.64355400      -0.94529600      -0.56797100
C        7.44284700       0.24408100      -1.23900200
C        6.27013000       0.92398900      -1.04577100
C        1.31459800       1.79996000      -0.43451200
C        1.02572200       1.47744900       1.04107000
36
Properties=species:S:1:pos:R:3 energy=0.03748299319727891 pbc="T T T"
C       -1.88655700      -4.45843900       1.09675300
C       -2.88839200      -3.42944500       0.74033600
C       -4.22926400      -3.75839400       0.71632300
N       -5.11967900      -2.80299700       0.38870900
C       -4.66921800      -1.54856600       0.09304900
N       -5.67315200      -0.59905200      -0.24243100
C       -5.38099400       0.74623400      -0.57534700
C       -4.08518600       1.23626500      -0.59783100
C       -3.84284900       2.55429500      -0.92765000
C       -4.88232200       3.41559700      -1.24266300
F       -4.63360400       4.72290200      -1.56909700
C       -6.16484700       2.91249400      -1.21560400
C       -6.43326200       1.58222400      -0.88470200
Cl      -8.06392700       0.95859700      -0.85456300
N       -3.35709700      -1.24500000       0.12141300
C       -2.42247800      -2.15916500       0.44175100
C       -0.99317300      -1.85564300       0.47984500
C       -0.09775700      -2.22491200       1.46729200
N        1.13528700      -1.78074700       1.18611200
C        1.05533700      -1.12016300       0.01689000
C        2.21717700      -0.48158400      -0.62708600
O        2.09727800       0.12643100      -1.72153000
N        3.50831800      -0.52711400      -0.04185000
C        4.67931300       0.08805900      -0.64191100
C        5.63732900      -1.06414100      -0.96245000
O        5.03905800      -1.95753900      -1.84426500
C        5.38467600       0.97292300       0.30023500
C        5.59091400       0.50381800       1.58498000
C        6.24624300       1.30677400       2.48685700
C        6.68931000       2.55947400       2.11230900
C        6.47004800       2.99618200       0.83243300
Cl       7.03232900       4.58661400       0.35618200
C        5.81403700       2.20558600      -0.08867600
C       -0.23981400      -1.14834800      -0.44281600
H        2.02420700      -1.90631900       1.75124100
H        4.44271000       0.59309900      -1.60470700
20
Properties=species:S:1:pos:R:3 energy=0.03748299319727891 pbc="T T T"
O       -3.58537200      -2.39047000       0.63430400
C       -2.75624100      -1.60023200       0.07617100
N       -2.88732500      -0.21462100       0.37505800
C       -1.83139100       0.77082700       0.34775400
C       -2.25655200       2.04204300       0.61558900
C       -1.37953800       3.10596300       0.63082600
C       -0.03753700       2.91369700       0.37379600
Cl       1.09710500       4.26741900       0.39002100
C        0.38745000       1.62785400       0.10373400
C       -0.49148800       0.56667200       0.08924100
C        0.16553400      -0.68372000      -0.21456000
C        1.61452500      -0.72300100      -0.09570400
C        2.28832600      -1.89098500      -0.37430000
C        3.65832000      -1.89805500      -0.25320700
C        4.36068900      -0.77616900       0.13569800
C        3.65062700       0.37515300       0.40619300
C        2.27684400       0.41003600       0.29284000
N       -0.40248400      -1.77298900      -0.58194800
C       -1.74230100      -2.18811300      -0.82321600
O       -2.12919100      -1.94131000      -2.12829000
29
Properties=species:S:1:pos:R:3 energy=0.04081632653061225 pbc="T T T"
O       -5.85551600      -4.20091400      -0.42240900
C       -4.97218800      -3.31975700      -0.41711200
O       -4.52769200      -2.81930800       0.78296200
C       -4.41958000      -2.82962200      -1.68745300
O       -3.45432400      -1.83940400      -1.40986700
C       -3.71643300      -0.65540000      -0.73791700
C       -4.97365600      -0.31145400      -0.26064400
C       -5.16839500       0.88339600       0.40046400
C       -4.13231000       1.78288100       0.61559600
Cl      -4.41135600       3.30067100       1.46296200
C       -2.88633800       1.43748500       0.14026800
C       -2.68010800       0.22933800      -0.53042700
C       -1.33216200      -0.13310500      -1.03888900
N       -0.37965700       0.91848300      -0.72557100
C        0.91097300       0.46585800      -1.26673600
C        1.04908600      -0.98591800      -0.85629300
N        1.30620000      -0.98973600       0.58177000
S        2.66920700       0.05470300       0.83502500
O        2.94053600       0.16890800       2.31286200
O        2.31126200       1.39783700       0.26456600
C        4.09987300      -0.54797200      -0.00581600
C        5.21695300       0.38026600       0.24876600
C        5.46271900       1.45138900      -0.57841400
C        6.53163500       2.32205700      -0.31691200
C        7.34318000       2.11775000       0.76322800
C        7.10581800       1.05267300       1.59327900
C        6.05422600       0.21020700       1.32165900
C        0.12508100      -0.46307500       1.22840500
C       -0.21703400       0.92176600       0.72024900
28
Properties=species:S:1:pos:R:3 energy=0.04306122448979592 pbc="T T T"
O        6.68819200      -1.10821000       1.14401000
C        5.67039200      -1.69984100       0.68505900
O        5.89497200      -2.99083800       0.27221700
C        4.36626000      -1.11699200       0.57067500
C        4.24726500       0.19366600       1.01512100
C        3.06598500       0.82450900       0.87511700
C        1.93146200       0.27160700       0.30544800
N        0.80912400       1.13087400       0.17275300
N        0.93745000       2.50562500       0.05410000
C       -0.22414700       3.04628300      -0.12864500
C       -0.57269500       4.49305400      -0.35551300
F        0.56600500       5.25722200      -0.55395800
F       -1.25974300       4.99647800       0.74855800
F       -1.48834800       4.52030400      -1.38069400
C       -1.17891100       2.09778800      -0.15065100
C       -0.47397900       0.86710600       0.05235600
C       -1.33846700      -0.32390900       0.07850700
C       -2.31812900      -0.44124100      -0.87722000
C       -3.36962900      -1.34216500      -0.77225400
C       -3.44491200      -2.17983200       0.39150800
C       -4.64786700      -3.10396000       0.46331300
F       -5.77791700      -2.29745600       0.23914000
F       -4.61299400      -4.11290800      -0.41069000
F       -4.82854400      -3.47928000       1.80443700
C       -2.49913000      -2.08199500       1.31319200
C       -1.42866800      -1.16551000       1.19568300
C        2.03459400      -1.01072900      -0.13631000
C        3.25237900      -1.74965100      -0.01594100
21