19
Properties=species:S:1:pos:R:3 energy=0.08843537414965986 pbc="T T T"
N       -0.70859500       3.28998800      -0.76157800
C       -1.05268000       1.93779500      -0.48541700
N       -0.10587500       0.96914000      -0.32241900
C       -0.44990400      -0.30352300      -0.06190700
N        0.50244800      -1.34333800       0.11497300
C        1.90417800      -1.11259300       0.02861400
C        2.81141100      -2.13228300       0.20296700
C        4.18044800      -1.91038100       0.11929800
C        4.58975800      -0.62748600      -0.14532400
C        3.69859100       0.41136400      -0.32391900
Br       4.39418700       2.15953200      -0.68854100
C        2.36942200       0.15244800      -0.23412700
C       -1.79633200      -0.58179300       0.03216100
N       -2.47767400      -1.71409800       0.27489400
C       -3.81605400      -1.43739200       0.25950400
N       -3.98790500      -0.12974300       0.00716700
C       -2.76599700       0.39924000      -0.13260700
N       -2.36911100       1.65054400      -0.39045700
H       -4.92031800       0.32257800      -0.05463300
21
Properties=species:S:1:pos:R:3 energy=1.0 pbc="T T T"
C       -3.24531500      -2.41421200      -1.98591800
C       -3.31530000      -1.86608200      -0.57826000
O       -2.24142400      -0.95920300      -0.39203500
C       -0.90964900      -1.32418400      -0.51396000
O       -0.70838200      -2.54857200      -0.80935500
C        0.21261300      -0.42002600      -0.32943000
C        0.15227000       0.89836600      -0.01793600
C       -1.01488400       1.76129000       0.21180700
C       -1.04495200       2.62406800       1.29207900
C       -2.11629500       3.45488100       1.54427500
C       -3.22007500       3.46278300       0.71991400
C       -3.19271400       2.60390200      -0.35742400
C       -2.12159700       1.77218800      -0.61094600
N        1.42583900       1.32706400       0.05529200
C        2.26493700       0.31263400      -0.20173700
C        3.65727700       0.28059500      -0.23962500
C        4.26514300      -0.91549200      -0.53440600
C        3.47223300      -2.00876300      -0.77445400
C        4.07591400      -3.34803700      -1.10282900
C        2.09428400      -1.93659100      -0.72743400
N        1.51007700      -0.75661200      -0.43696100
36
Properties=species:S:1:pos:R:3 energy=0.057687074829931975 pbc="T T T"
C        6.99941400       4.23036800       0.50194600
C        8.20783000       3.39404500       0.86499100
O        8.45239100       2.34108700      -0.00718400
C        7.58419200       1.29178600      -0.28545800
C        7.92463700       0.29330800      -1.17511000
C        7.07046800      -0.75749200      -1.46305400
C        5.82284800      -0.85380700      -0.86258400
O        4.97371200      -1.91606300      -1.16521600
C        3.77321900      -2.15579200      -0.54054500
C        3.38920300      -1.40139800       0.54691900
C        2.18481300      -1.62013500       1.19977800
C        1.32158400      -2.62355400       0.76346400
S       -0.18586600      -2.94697100       1.57153400
O       -0.56249300      -4.37280900       1.25143000
O        0.05464400      -2.86866500       3.05270800
N       -1.44840600      -1.87642200       1.08111900
C       -1.22072800      -0.48449600       1.19930000
O       -0.09869700      -0.10342100       1.65540600
C       -2.17945800       0.52736800       0.83480500
C       -1.77333000       1.86529800       0.74972700
C       -2.65259500       2.86290800       0.40910800
C       -3.95537700       2.51367000       0.15170500
C       -4.37899200       1.18418900       0.23144500
C       -5.77460400       0.95848300      -0.06891300
C       -6.29765500      -0.18647100      -0.63102200
C       -7.63139200      -0.35834700      -0.91591700
C       -8.50931700       0.65474400      -0.63454500
Cl     -10.22027900       0.47864200      -0.98629600
C       -8.04083500       1.81194400      -0.07606500
Cl      -9.13378600       3.11663200       0.28853600
C       -6.71003200       1.95955900       0.19957000
C       -3.48714500       0.20454000       0.57173900
C        1.73230900      -3.35387300      -0.31868800
C        2.93782000      -3.15170000      -0.99000800
C        5.48954200       0.14638200       0.02554300
C        6.34235900       1.19646500       0.31228800
24
Properties=species:S:1:pos:R:3 energy=0.02040816326530612 pbc="T T T"
N       -4.67251500      -2.04016700      -0.82850200
C       -3.57977800      -1.76082300      -0.57197500
C       -2.21418000      -1.42234400      -0.27022400
C       -1.90186200      -0.25293700       0.38713600
C       -2.96969400       0.68319600       0.79811800
C       -2.91044400       1.21379000       2.07225200
C       -3.88172700       2.08520400       2.49027700
C       -4.89520900       2.41000100       1.62521300
C       -4.96060200       1.88808200       0.36077300
C       -3.98923000       1.01119400      -0.06929700
N       -0.62060100       0.04455200       0.65942500
C        0.36385400      -0.79374200       0.29382200
S        2.09166400      -0.41597700       0.64840700
C        2.71413400       0.51762100      -0.78581900
C        4.15206800       0.84669000      -0.51912300
C        4.51991900       2.01051700       0.12260300
C        5.84040900       2.32276200       0.37286600
C        6.85434500       1.46999600      -0.01530000
C        6.47944100       0.30678300      -0.65714900
C        5.16412500      -0.00906400      -0.90899900
N        0.10834900      -1.94599700      -0.34933000
C       -1.17329500      -2.25236300      -0.62643300
O       -1.42108800      -3.34232200      -1.23534700
H        0.90191700      -2.57465100      -0.61866700
30
Properties=species:S:1:pos:R:3 energy=0.42857142857142855 pbc="T T T"
O       -5.95097000       2.85228600       2.59320000
C       -4.89382600       2.34679300       2.15696400
O       -3.65899800       2.79845700       2.55680200
C       -4.97280400       1.25707900       1.20642400
C       -6.20452400       0.80486300       0.80482200
N       -6.31946800      -0.19849700      -0.07320600
C       -5.21131800      -0.78997400      -0.58456600
C       -3.94537100      -0.39144300      -0.22994100
C       -2.80374900      -1.07144300      -0.82008000
C       -2.94585500      -1.55686600      -2.11027000
C       -1.90237800      -2.20980200      -2.73355700
C       -0.70923300      -2.36594300      -2.03313500
Cl       0.66200300      -3.18969300      -2.77087300
C       -0.55808600      -1.88642500      -0.74927600
C        0.73120100      -2.07113000      -0.04431200
O        0.93318200      -3.09910400       0.64631000
N        1.75054800      -1.09099200      -0.14058400
C        3.03719500      -1.23000000       0.53541800
C        3.92579500      -0.04416000       0.26679400
C        3.21525400       1.21453600       0.78603500
C        4.15816300       2.38159100       0.67084800
C        4.44210000       2.57827400      -0.81004100
C        5.15176000       1.34246400      -1.31418800
C        6.46657800       1.15603700      -0.57271200
C        6.12895300       0.96457300       0.88962400
C        5.42719000       2.19066300       1.45386200
C        5.19785900      -0.22451900       1.06646700
C        4.29320800       0.12336300      -1.18583700
C       -1.60814400      -1.23676600      -0.13920100
C       -3.83626600       0.64577600       0.67820600
26
Properties=species:S:1:pos:R:3 energy=0.0 pbc="T T T"
O        5.92655900       0.88169300       0.35700800
C        6.12844700      -0.02661400       1.17452700
O        6.68596200       0.34192700       2.40574500
C        5.81351000      -1.43222200       0.90581800
C        5.17169700      -1.61498600      -0.41627300
C        3.89902200      -0.92557800      -0.55561900
C        3.73548400       0.33779400      -1.06793600
C        2.50277900       0.94994200      -1.17991500
C        1.34494900       0.30706900      -0.77258800
O        0.11485900       0.93884800      -0.89319600
C       -1.02018100       0.24801500      -0.46929500
C       -2.24651700       1.06304300      -0.66496300
C       -2.18977300       2.33196400      -1.19886200
C       -3.32248800       3.09505000      -1.38126800
Cl      -3.25406200       4.71477400      -2.06352100
C       -4.52714000       2.53512800      -1.00538000
C       -4.57995500       1.26512300      -0.47143300
C       -3.45356800       0.49148800      -0.28405600
C       -3.49357100      -0.84611700       0.27378900
C       -4.22869900      -1.18549700       1.38568400
C       -4.22160900      -2.50027200       1.87234300
C       -3.47806100      -3.47317800       1.24464900
C       -2.74249300      -3.14038900       0.13464700
C       -2.76409000      -1.84302300      -0.32620700
C        1.48147400      -0.95888600      -0.25606600
C        2.71746900      -1.55509600      -0.15113500
28
Properties=species:S:1:pos:R:3 energy=0.0 pbc="T T T"
C        4.23218200      -3.41473300      -1.86395400
C        3.60759800      -2.30351400      -1.10941200
N        4.01744000      -1.69644900       0.00530600
N        3.20980700      -0.76062600       0.38204900
C        3.37251200       0.05175900       1.52180200
C        2.81273000       1.30072100       1.57905300
C        3.00174600       2.06327900       2.73229800
C        3.72316300       1.62041500       3.81454300
C        4.28977100       0.35476100       3.75455700
C        4.09479200      -0.38904400       2.60656200
C        2.14324100      -0.66847600      -0.50144600
N        1.12867000       0.26530200      -0.31367900
C       -0.01275800       0.57883000      -1.01341700
O       -0.27419800      -0.06009500      -2.05629600
N       -0.95046100       1.59171200      -0.64931300
S       -2.35410100       1.91247400      -1.58801700
O       -2.07703700       1.52436200      -3.01854300
O       -2.69008400       3.38804500      -1.60011500
C       -3.73180500       1.02616200      -0.97124900
C       -4.57684600       1.54010500       0.00660200
C       -5.66003600       0.85399900       0.49586100
C       -5.93405400      -0.40949100       0.00077000
Cl      -7.28716000      -1.31491100       0.58561200
C       -5.11038800      -0.93037100      -0.96321100
C       -4.01635800      -0.23358000      -1.45554500
C        2.40232400      -1.63844400      -1.43019300
C        1.63196700      -1.98933100      -2.56194600
N        1.00734600      -2.26286500      -3.50301100
31
Properties=species:S:1:pos:R:3 energy=0.006802721088435375 pbc="T T T"
O       -6.29831700       3.64661800      -0.19905700
C       -5.37408400       2.76828800      -0.32906300
O       -4.28358800       3.15485400      -1.11740700
C       -5.54286500       1.52444700       0.32853300
C       -6.70966300       1.25207700       1.06933200
C       -6.91373700       0.08446300       1.69543300
C       -5.91798400      -0.88603400       1.59718200
N       -4.82552500      -0.63672600       0.90881900
C       -4.56600900       0.55748600       0.24528100
N       -3.37173000       0.66353200      -0.47831300
C       -2.22651200       1.32117200      -0.05691300
C       -1.02370400       0.41139300      -0.38006900
C       -1.34097600      -1.00392600      -0.62455100
C       -0.31712200      -2.00752800      -0.71426000
N        0.46113900      -2.19857900       0.45826300
C        1.32672400      -1.00245700       0.69851900
C        2.17695100      -0.86651500      -0.49863300
C        3.20701500      -1.94525700      -0.62318300
O        4.10822800      -2.02890400       0.52770500
C        5.10352200      -1.04922800       0.55043800
C        6.19609700      -1.04486000       1.34099700
C        7.08433300       0.00142900       1.30211800
C        6.90997000       1.07459800       0.46954800
Cl       7.98011900       2.46664300       0.42977200
C        5.79893600       1.11930300      -0.36798000
Cl       5.49813900       2.47770700      -1.42568500
C        4.93545600       0.05207700      -0.30316500
C        2.44726800      -3.30572100      -0.58529700
C        1.35686000      -3.35504200       0.38745900
C       -2.52033400      -1.24694300      -1.53189500
C       -3.35860600       0.00163500      -1.77542200
37
Properties=species:S:1:pos:R:3 energy=0.12503401360544217 pbc="T T T"
N       -8.90621000      -0.55336800      -2.62816000
C       -8.04362500       0.00430800      -1.64652400
N       -8.49307500       0.63257800      -0.54699400
C       -7.62153300       1.15018200       0.36438100
N       -6.28793200       1.06415000       0.21956900
C       -5.80312000       0.44746000      -0.85955000
C       -6.67749000      -0.09186100      -1.80904200
N       -5.88679900      -0.63013100      -2.74923700
C       -4.59030200      -0.43659500      -2.40390700
N       -4.53186800       0.22885400      -1.23698600
C       -3.28916100       0.59309800      -0.59200600
O       -2.35226400      -0.39742000      -0.77624600
C       -1.36812600      -0.12385300       0.16546300
C       -0.52892500      -1.35767600       0.41070700
S        0.77251400      -1.09874600       1.61642100
C        1.98090400       0.08381100       0.94771400
C        2.69993200      -0.49312100      -0.24731800
C        3.45830400      -1.76135200       0.07233100
N        4.43591800      -1.43643000       1.09165700
C        5.43440800      -0.46070100       0.84047400
O        5.41524800       0.09205100      -0.29689900
N        6.42048900      -0.11051500       1.81773100
C        7.41569700       0.88473200       1.52231300
C        8.48135100       0.39191400       0.63382100
C        9.58935100      -0.19790700       1.20222900
C       10.62661600      -0.68309400       0.44355600
C       10.55352200      -0.57538700      -0.92053900
C        9.44567500       0.01434400      -1.49172800
C        8.40099500       0.50361300      -0.73787100
C       -2.04341000       0.39917800       1.38759400
O       -1.54759500       1.68959900       1.67160600
C       -3.46759900       0.60063000       0.91192200
O       -3.95298200       1.86457700       1.27376200
H       -2.93219400       1.60691500      -0.88001200
H       -0.68602400       0.63586500      -0.29906700
H       -1.97103600      -0.25750700       2.27087200
H       -4.14965300      -0.20274200       1.25796100
35
Properties=species:S:1:pos:R:3 energy=0.013605442176870746 pbc="T T T"
C       -3.79601200      -1.12645200       1.64517900
C       -2.50907400      -0.46308700       1.20956200
N       -1.75566800       0.37260800       1.91919800
N       -0.67665900       0.75936900       1.18901900
C        0.30766300       1.64406400       1.69498400
C        1.17291900       1.19704400       2.66482300
C        2.10611200       2.06219000       3.19658600
C        2.20196600       3.37226400       2.78431100
F        3.14285900       4.20992900       3.33361800
C        1.33669100       3.82421500       1.81168700
C        0.38995400       2.94144400       1.27455300
C       -0.71255400       0.17721400      -0.01505100
N        0.08542900       0.20286500      -1.14267900
S        1.45060000       0.92491500      -1.65535700
O        1.71362700       0.47962000      -3.12238400
O        1.28886400       2.44881300      -1.70105500
C        2.92640700       0.60852200      -0.77016000
C        3.63268000      -0.53568700      -1.01708000
C        4.80645500      -0.71278300      -0.29680500
C        5.25629600       0.19634400       0.61978700
C        6.47482500       0.01854600       1.37137600
N        7.45531100      -0.10411100       1.97411200
C        4.53925700       1.35656200       0.86958000
C        3.36028800       1.52552300       0.14027900
C       -1.90861900      -0.61722800       0.00655100
C       -2.35019300      -1.43457800      -1.11508600
O       -1.74124300      -1.52762600      -2.19677100
N       -3.55028900      -2.17483000      -0.97301600
C       -4.09160000      -3.01719200      -2.00504700
C       -4.25369600      -4.43289400      -1.55587000
C       -5.41701000      -2.45069300      -2.52228900
C       -5.98858100      -3.32725300      -3.60243800
C       -5.15920100      -1.06719200      -3.09968800
C       -6.35197300      -2.37704000      -1.34081100
H       -3.38583100      -2.95340400      -2.88171700
35
Properties=species:S:1:pos:R:3 energy=0.054421768707483 pbc="T T T"
C        3.36856300       2.83718700       1.56678700
C        2.99546400       1.70406900       0.69476300
C        1.66588300       1.27987500       0.65459400
C        1.29976600       0.22560200      -0.15218400
C       -0.13012200      -0.18491200      -0.15664100
N       -0.27547900      -1.27762700      -1.04945400
C        0.46985600      -2.45201500      -0.77206800
C       -0.36930700      -3.43070800      -0.03428900
C        0.05381300      -4.18125400       1.02913900
C       -0.80871000      -5.05916900       1.63979100
C       -2.10879400      -5.19103300       1.18549100
C       -2.53732600      -4.43710300       0.11563500
C       -1.66018700      -3.56578600      -0.48060100
C       -2.16260200      -2.77187200      -1.63108600
C       -1.50546700      -1.41625900      -1.72850900
C       -2.50431000      -0.43390900      -1.24067000
O       -3.65841500      -0.45978700      -1.79123200
N       -2.31598900       0.52152800      -0.23772900
C       -3.32675100       1.43923800       0.18266400
C       -4.58856400       1.47502300      -0.36101600
C       -5.54195200       2.37793600       0.07082100
C       -5.26830500       3.28785200       1.07156600
Cl      -6.48902500       4.42779600       1.60888300
C       -4.00310800       3.25500500       1.61963900
C       -3.03688000       2.33953000       1.18161600
Cl      -1.43612000       2.31882500       1.89560300
C        2.27272200      -0.38001500      -0.90029000
C        3.59403900       0.02565500      -0.87385300
C        3.95922600       1.07039400      -0.07495200
O        5.26009300       1.53526100       0.00666000
C        6.27536100       0.92706100      -0.75380900
C        7.56555400       1.60229400      -0.49106100
O        8.59589700       1.18541900      -1.09268700
O        7.68190100       2.66812800       0.38552500
H       -1.33072200      -1.26223000      -2.83617900
29
Properties=species:S:1:pos:R:3 energy=0.44217687074829926 pbc="T T T"
O       -1.12043200      -3.06812000       1.42243100
C       -0.84366200      -2.06143700       0.72208300
N       -1.84735300      -1.10324500       0.49874100
C       -3.19936300      -1.23377800       1.04996000
C       -3.99638900      -0.04664600       0.61706300
C       -5.39589200      -0.19650300       1.19648000
C       -6.27931900       0.95269400       0.77626900
C       -5.69990400       2.25789200       1.32846600
C       -4.30323800       2.39793900       0.79282800
C       -4.35282800       2.54424600      -0.71939000
C       -4.88948800       1.23720000      -1.28601100
C       -6.27262700       1.03677100      -0.72962200
C       -4.03018200       0.06154000      -0.89401300
C       -3.40955900       1.24791300       1.13725500
C        0.51687200      -1.94533100       0.17653000
C        0.77279200      -2.49156000      -1.06315300
C        2.04934900      -2.38046900      -1.57070900
N        3.01589500      -1.75502700      -0.87146100
C        2.79226300      -1.21536700       0.33661200
N        3.84179200      -0.55026800       1.06782800
C        5.15447400      -0.48125800       0.45540000
C        5.00276700       0.26553500      -0.85091900
C        4.46917500       1.66083800      -0.58812800
C        5.43626300       2.32116200       0.38095700
N        6.76942200       2.32825300      -0.19504000
C        6.76266600       1.79957500      -1.54269800
C        6.32729200       0.34593300      -1.54246400
C        1.52185100      -1.31628100       0.86102200
Cl       1.20736200      -0.61220400       2.45015100
17
Properties=species:S:1:pos:R:3 energy=1.0 pbc="T T T"
O       -1.60713400      -2.94609500       0.13004000
C       -1.14581300      -1.61822100       0.08551800
N        0.17443900      -1.35816900       0.11299000
C        0.58900300      -0.08706700       0.06957400
C        2.03878900       0.21261200       0.09912300
C        2.47750100       1.49784900       0.05579300
C        3.83601600       1.72295600       0.08595100
C        4.75385500       0.68531700       0.15840200
C        4.29266900      -0.61480200       0.20172000
C        2.94081500      -0.81227100       0.17054600
N       -0.29873300       0.89768500       0.00036800
C       -1.63367800       0.67644600      -0.02923500
C       -2.55584600       1.70414500      -0.10135200
C       -3.91306000       1.42623100      -0.12914600
C       -4.39633000       0.12060200      -0.08624200
C       -3.45050400      -0.87260400      -0.01493700
C       -2.10198900      -0.63461200       0.01434600
35
Properties=species:S:1:pos:R:3 energy=0.6938775510204082 pbc="T T T"
C        0.86554300       0.27630500      -2.54422900
C        1.65458500       0.91255600      -1.39082700
N        2.12670300      -0.08316500      -0.45203100
C        3.40103600      -0.70248600      -0.60543700
O        3.80453600      -1.59647000       0.20785000
N        4.30096300      -0.37015000      -1.65843000
C        5.56630200      -0.99660200      -1.79224200
C        6.61291000      -0.57989300      -0.85870100
C        6.43283800      -0.20966300       0.43949300
C        7.53587300       0.15540900       1.19363500
C        8.82655600       0.15501000       0.65964400
F        9.91401500       0.51286800       1.40834000
C        8.99800800      -0.22157700      -0.65786600
C        7.90776700      -0.57791000      -1.38619900
C        1.31108200      -0.44209400       0.67284700
C        0.87600700       0.74806200       1.49090400
C       -0.11758800       1.54484600       0.64102300
N       -1.27966700       0.72085700       0.35245300
C       -2.24495000       0.75407500       1.39729800
C       -3.39107100      -0.16036500       1.30547300
C       -4.21831100       0.03407400       0.10819700
C       -4.84067100       1.33024600      -0.04022600
C       -4.71712700       2.16655100      -1.12688100
C       -5.34956100       3.39059300      -1.19676400
C       -6.13340800       3.77143400      -0.12322200
C       -6.28126200       2.97481400       0.96941300
C       -5.64804700       1.77847700       1.01274900
C       -5.07935100      -1.13842400      -0.12663500
C       -4.71094900      -2.02333300      -1.12410500
C       -5.50367700      -3.14399100      -1.33237000
C       -6.63111100      -3.36045400      -0.55568100
C       -6.95874900      -2.45488100       0.42276200
C       -6.19809100      -1.32308700       0.66423600
C       -0.97596800      -0.53402200      -0.22723900
C        0.14483600      -1.30760900       0.36618800
25
Properties=species:S:1:pos:R:3 energy=0.7428571428571428 pbc="T T T"
O        0.03672000      -1.67266900      -1.02247700
C        0.85381200      -0.83816700      -0.55216700
N        0.39422000       0.35354400      -0.01961000
C       -0.92664200       0.83825200       0.10860300
N       -1.18885000       2.09764100       0.60756200
C       -2.49979300       2.31810400       0.62756400
C       -3.29487200       3.38487900       1.01876700
C       -4.66022000       3.34346100       0.92897100
C       -5.28717500       2.22412100       0.44041200
C       -4.50298500       1.16413600       0.05140000
C       -3.13004400       1.20568700       0.14166500
N       -2.12608300       0.33271400      -0.15937700
C       -2.46302100      -0.97120500      -0.69881600
C       -2.69709900      -1.86234100       0.52809300
C       -3.05248600      -3.23718200       0.01070700
O       -4.19694700      -3.18828200      -0.76870000
C        2.29749400      -1.15517500      -0.58090600
C        2.78416800      -2.32052700      -1.10361300
C        4.16937500      -2.52910000      -1.08483700
C        5.03295300      -1.58401700      -0.55204600
C        4.52917700      -0.42694100      -0.03482900
N        5.35410600       0.58422800       0.52665100
O        6.58844900       0.42428300       0.55589800
O        4.82591100       1.74107600       1.04168400
C        3.15983200      -0.22652200      -0.05618500
33
Properties=species:S:1:pos:R:3 energy=0.10054421768707483 pbc="T T T"
C        4.25807400       5.13313100      -0.80960800
C        4.12477200       4.39969400       0.51302800
C        4.27808800       2.91975300       0.35530800
C        3.24955500       2.32209900      -0.55768500
C        3.46046200       0.85459700      -0.66890600
N        4.45092200       0.22856000      -0.10348500
C        4.41588200      -1.18372800      -0.36875200
C        4.20037700      -1.97852500       0.91570800
C        5.07285300      -3.20736700       0.81445600
C        5.62139400      -3.20672300      -0.57877100
C        5.65791300      -1.74902400      -0.96362000
C        3.23635500      -1.35717600      -1.25795500
O        2.86664200      -2.46111900      -1.75780600
N        2.66762900      -0.06487000      -1.39631000
C        1.45790500       0.20774200      -2.15579600
C        0.30433300       0.07263700      -1.20075400
C       -0.41413100       1.17584800      -0.80700600
C       -1.45868900       1.01994300       0.09683600
C       -1.80160900      -0.20027400       0.61337600
C       -2.87625100      -0.40827000       1.56495000
C       -2.59456700      -0.79203100       2.88197700
C       -3.57110700      -0.99570500       3.82434400
C       -4.89314900      -0.81182800       3.44776400
C       -5.15036100      -0.43996400       2.16620500
C       -4.18288000      -0.22568100       1.18797300
C       -4.55061000       0.16523000      -0.16367100
N       -3.80823100       0.44057200      -1.23946900
N       -4.58744600       0.74815600      -2.26740300
N       -5.84527300       0.67793700      -1.87480400
N       -5.84087800       0.32162900      -0.58986000
C       -1.05655100      -1.30350000       0.19608500
C       -0.01377600      -1.17353800      -0.70177500
H       -6.67764800       0.87179600      -2.47934400
25
Properties=species:S:1:pos:R:3 energy=1.0 pbc="T T T"
C       -2.25155900       1.99300500      -0.41364900
C       -2.40945200       1.16097300       0.82466600
N       -2.42702800      -0.26383000       0.56070000
C       -1.41585000      -1.13963400       0.50800700
S        0.27504100      -0.67966600       0.79187300
C        1.11705200      -0.15007900      -0.71813900
C        2.51931000       0.17970700      -0.32133600
O        2.70106300       1.03646800       0.59338300
N        3.65519800      -0.42602500      -0.92306300
C        4.95181900      -0.08626500      -0.50192300
C        6.04568000      -0.55129200      -1.17593100
C        7.35569900      -0.27436600      -0.80263100
C        7.52215800       0.52471800       0.32487900
C        6.44650600       1.01460400       1.03369600
C        6.71746400       1.85654800       2.23299800
C        5.15880900       0.70274500       0.61080900
N       -1.95903700      -2.33713700       0.22838200
N       -3.27048400      -2.25011700       0.10318400
C       -3.56711500      -0.95305600       0.31090900
C       -4.90258700      -0.38865400       0.28196900
C       -5.12450500       0.97243900       0.47665600
C       -6.41973800       1.45948600       0.45089300
C       -7.45317300       0.59096100       0.23279900
C       -7.28903400      -0.77627800       0.03131800
C       -5.97623500      -1.21525500       0.06737100
33
Properties=species:S:1:pos:R:3 energy=0.11530612244897959 pbc="T T T"
C       -0.45196500      -3.39931900      -0.80213900
O       -0.87217200      -2.66837900       0.32949900
C       -0.71966000      -1.31002500       0.48579400
C       -1.70718400      -0.43590900       0.05485200
N       -2.86209500      -1.02871500      -0.54615400
C       -3.88127000      -0.14484300      -0.99214700
C       -3.79440100       1.22859300      -0.86731700
C       -4.80969900       2.04847000      -1.31537300
C       -5.93018500       1.46705700      -1.89888700
S       -7.25843800       2.45686800      -2.49019700
C       -7.43926800       2.14785400      -4.22294700
O       -6.89877500       3.90906200      -2.32314100
O       -8.49768900       2.15221400      -1.73388600
N       -6.01095400       0.12493600      -2.01884400
C       -5.01879900      -0.66784400      -1.58050000
C       -5.12483500      -2.15841300      -1.72169100
N       -1.56430200       0.89008500       0.20446400
C       -0.47489600       1.42440800       0.76990200
N        0.48135000       0.59332300       1.18811600
C        0.40111700      -0.74176500       1.06862400
O        1.40481300      -1.58931800       1.50904900
C        2.53753100      -1.02473800       2.09768800
C        3.55846800      -2.01965500       2.53728800
C        4.95727900      -1.43928300       2.58061800
N        5.31510300      -0.77775700       1.36357800
C        6.68541500      -0.54752100       1.03196000
O        7.58199700      -0.93402200       1.82432500
O        7.06785100       0.08652800      -0.13126100
C        8.45171500       0.30819700      -0.44568100
C        8.58643500       1.01528200      -1.76428500
C        8.94884400       1.27099400       0.64007700
C        4.24962800      -0.34939100       0.47952800
C        3.08904100       0.11302400       1.30812300
28
Properties=species:S:1:pos:R:3 energy=0.2925170068027211 pbc="T T T"
N       -3.67604800       4.00225300       0.73248500
C       -4.37679200       3.02239400      -0.09340300
C       -3.51423100       2.44039700      -1.16646700
C       -2.32443800       1.74322400      -0.57809900
C       -1.49598600       1.17833500      -1.71150700
N       -0.31065300       0.47883300      -1.22336400
C        0.54673500       1.50184100      -0.65792700
C        1.80391400       0.89507100      -0.19373600
N        2.36638000      -0.28200200      -0.48712800
C        3.52821200      -0.45486200       0.15713100
C        4.44884800      -1.49067000       0.17046900
C        5.54927900      -1.33852100       0.95594600