28
Properties=species:S:1:pos:R:3 energy=0.06523809523809523 pbc="T T T"
O        5.13345700       0.99842500       0.27361800
C        4.97406300      -0.22221100       0.02061900
N        3.66480400      -0.70719700      -0.10265500
C        2.52178200       0.12274300       0.04641600
C        1.24440600      -0.37939900      -0.08012700
C        0.15818200       0.47069300       0.07424100
C       -1.20477300      -0.00337100      -0.04747800
C       -1.49010200      -1.03713800      -0.90920300
C       -2.80851400      -1.49070900      -1.02151800
N       -3.81176500      -0.94912000      -0.31311900
C       -3.53983300       0.05735600       0.52710800
N       -4.59682900       0.62584500       1.27158000
C       -5.92744500       0.13261400       1.12466300
C       -6.98387900       0.65428000       1.83465500
C       -8.26217700       0.18391700       1.69665800
C       -8.49834300      -0.85649000       0.80797000
C       -7.45344300      -1.39551100       0.08489300
C       -6.18084900      -0.89922600       0.24773900
C       -2.23767600       0.54535800       0.67377600
C        0.43575800       1.80062400       0.35210100
C        1.71740500       2.29645100       0.47754700
N        2.72792900       1.42185700       0.31673100
C        6.18662900      -1.07448600      -0.13205000
C        6.23914600      -1.70245700      -1.50961300
C        6.36309200      -0.61100000      -2.57267200
O        6.50234000       0.63501500      -1.98495100
C        7.68269900       0.60420900      -1.20852700
C        7.44393600      -0.23336800       0.05159700
31
Properties=species:S:1:pos:R:3 energy=0.0 pbc="T T T"
C        2.66846600       2.36752600      -1.58023200
N        3.45347200       1.44782300      -0.81509300
C        4.87726700       1.71155900      -0.91230900
C        3.09234600       1.47769400       0.59945700
C        1.60995500       1.44215100       0.71996300
C        0.92012300       0.65477000      -0.36421800
O       -0.18376000      -0.00011700       0.24563000
C       -1.49755400       0.23206000      -0.11807400
O       -1.72685300       1.06020900      -1.02956200
C       -2.62947400      -0.46733800       0.53715900
O       -2.10236200      -1.33130300       1.50200100
C       -3.31377800      -1.24937400      -0.52912100
C       -3.76019100      -0.84293200      -1.68624400
C       -4.35507100      -1.73538900      -2.50799100
C       -4.49508700      -2.95618100      -2.19384200
S       -3.68768500      -2.93076100      -0.48283400
C       -3.51576800       0.57031100       1.08708100
C       -4.10538000       1.65644900       0.78740000
C       -4.87584000       2.32261600       1.65518500
C       -5.09453400       1.95256500       2.83640100
S       -4.05930200       0.35561500       2.84383600
C        1.79596300      -0.33622700      -1.04195200
C        3.23305200       0.06503000      -1.14014100
C        3.99604600      -0.66635700      -0.05194500
O        5.01645500      -0.00184900       0.61627700
C        3.74966500       0.22812800       1.13732500
H        3.50546000       2.40617600       1.05175000
H        0.47263200       1.33730600      -1.14224600
H        3.63045600      -0.20911700      -2.13453700
H        3.94328700      -1.75122200       0.03306300
H        3.43799400      -0.21533500       2.07781200
37
Properties=species:S:1:pos:R:3 energy=0.4081632653061224 pbc="T T T"
O       -8.43319900       3.35031500      -1.21640300
C       -7.67114900       2.47175800      -0.77127500
N       -7.51971200       1.89080400       0.45011400
C       -6.62303700       0.97371300       0.66400800
C       -6.32508300       0.35363300       1.90940000
O       -7.03536400       0.61339000       3.07444600
C       -5.30408200      -0.53052100       1.98774300
C       -4.49971700      -0.89458100       0.90843500
C       -4.76804800      -0.32154600      -0.28545400
C       -4.02204700      -0.69882300      -1.55162500
O       -4.82830100      -0.88863800      -2.63933300
C       -2.78873600       0.09396600      -1.68383800
N       -1.92038400       0.40067500      -0.73377600
C       -0.96478100      -0.49052000      -0.20343500
C        0.02338800      -0.78533900      -1.30597900
C        1.19008400      -1.51672400      -0.81705400
C        1.34798400      -2.84211100      -0.65655700
C        2.54527600      -3.39751800      -0.23815500
C        3.62663400      -2.58562700       0.02827200
C        3.47618300      -1.22786500      -0.13366100
C        4.58885700      -0.24138600       0.08966500
N        4.43946800       0.75167600      -0.95160300
C        5.32637700       1.82859400      -0.96080500
C        6.74454500       1.52956100      -1.29412800
C        7.27758700       0.59001400      -0.28428200
C        7.55168400       1.12601500       0.97096300
Cl       7.26590300       2.81485600       1.31051600
C        8.05425400       0.32658900       1.97805700
C        8.28330200      -1.01177600       1.71890900
C        8.01407800      -1.51525800       0.49113800
C        7.50516800      -0.73539600      -0.54534500
Cl       7.17816300      -1.37434900      -2.10515000
C        2.30073000      -0.70733500      -0.54302300
C       -5.80438900       0.57536100      -0.37063700
S       -6.37799200       1.60020000      -1.74565900
H       -8.23133000       2.26400700       1.22401800
H       -3.62231700      -1.78981200      -1.33432900
39
Properties=species:S:1:pos:R:3 energy=0.408843537414966 pbc="T T T"
F       -4.72325700       3.41526200      -1.80828900
C       -5.58575700       2.83440300      -0.92027200
C       -6.81571100       2.36474500      -1.35207500
C       -7.64046800       1.79187700      -0.42304500
C       -7.23886400       1.69628200       0.89498600
C       -5.99367800       2.17600700       1.31175000
C       -5.65226600       2.02673900       2.76186500
O       -5.06512100       0.79420200       3.04118000
C       -3.88004200       0.31684200       2.49472500
C       -3.15813900       1.06764900       1.58829500
C       -1.97986800       0.61642600       1.03251500
C       -1.45964400      -0.62811800       1.36270000
N       -0.24407000      -1.09119700       0.78661800
C        0.20938700      -2.38122300       1.17475600
N       -0.45282000      -3.16662900       2.04766000
C        0.00883200      -4.39318200       2.39269500
N        1.16469400      -4.82497400       1.83855700
C        1.88109000      -4.11632900       0.97023000
C        3.06227800      -4.55883800       0.40239300
C        3.70769700      -3.72566900      -0.48681000
C        3.24101300      -2.47699200      -0.84079400
C        3.97739900      -1.62767700      -1.80310500
C        4.70697900      -2.18728100      -2.82933900
C        5.39181400      -1.40274000      -3.72725700
C        5.34637900      -0.03934200      -3.59712300
C        4.63247300       0.56460100      -2.58988400
N        4.57594500       1.97813400      -2.44119300
C        3.82519100       2.58944700      -1.37394700
C        4.59896800       3.77907800      -0.78586900
O        5.92528300       3.65005000      -1.25435300
C        5.91284200       3.99478600      -2.60615100
C        5.28088300       2.82415600      -3.37016400
C        3.95515300      -0.25678500      -1.70424300
C        2.06195000      -2.05256300      -0.26441000
C        1.38274300      -2.85245800       0.62980700
C       -2.18931900      -1.37404300       2.27171500
C       -3.36442000      -0.91606300       2.82175500
Cl      -4.23936000      -1.90463100       3.96240100
C       -5.16619200       2.74801500       0.39171700
29
Properties=species:S:1:pos:R:3 energy=0.009999999999999998 pbc="T T T"
O        0.24263400      -0.94978000      -1.82167100
C       -0.37806000      -0.55705900      -0.93379800
N        0.29789000       0.00907500       0.18984500
C        1.52488700       0.29966800       0.60832900
C        1.48989300       1.14079000       1.79870900
C        2.55890300       1.62227100       2.38912800
C        3.79320200       1.35195500       1.91520700
C        3.90433800       0.53300100       0.76345700
C        5.23131100       0.30913000       0.21905100
N        6.28084500       1.13502200       0.64007600
N        7.37094400       0.79336700      -0.04757600
N        6.99334300      -0.20141100      -0.85025500
N        5.70854300      -0.49261700      -0.68999300
C        2.78135000       0.04907900       0.15716500
C       -1.86508700      -0.54526200      -0.77336300
C       -2.46371000       0.71799800      -0.84646000
C       -3.79376000       0.86798700      -0.47882900
C       -4.40094900       2.24719300      -0.51249900
F       -3.56745700       3.10126700       0.25859300
F       -4.53068200       2.81035500      -1.71033700
F       -5.63785400       2.15997400       0.10596400
C       -4.50668800      -0.20005400      -0.06339000
C       -3.94275100      -1.45234000       0.00696800
N       -4.44553500      -2.63823000       0.39359300
C       -3.43816400      -3.52126900       0.27575100
N       -2.34262000      -2.91836000      -0.16171000
C       -2.59382300      -1.59946800      -0.35709000
H        5.16307800      -1.27769200      -1.18501800
H       -5.43402100      -2.79459000       0.71015400
29
Properties=species:S:1:pos:R:3 energy=0.01768707482993197 pbc="T T T"
C       -2.11250700      -3.82888300      -3.00370900
C       -2.38334400      -2.74732300      -2.01075900
C       -3.61634100      -2.65418400      -1.39232900
C       -3.88437500      -1.65621000      -0.46812000
C       -2.92598900      -0.72082500      -0.13477000
C       -1.68539600      -0.80389300      -0.74841600
C       -1.43605900      -1.80531100      -1.66716600
C       -0.92516300       0.23154200      -0.24695800
C        0.45264100       0.56967900      -0.58078500
C        0.74477800       1.43726600      -1.61334900
C        2.02687600       1.78952300      -1.96940800
N        3.06620300       1.27526000      -1.29151100
C        2.82115100       0.42538600      -0.27779900
C        3.88396900      -0.10738800       0.42372800
C        5.28313200       0.27973400       0.03192200
F        5.41046200      -0.13518600      -1.29984400
F        5.47273300       1.63324500       0.15588100
F        6.20585500      -0.45972100       0.74242100
C        3.65335200      -0.97884700       1.46430200
C        2.37064200      -1.33261900       1.82215700
C        1.28822600      -0.81058600       1.13254600
C        1.54164200       0.05390300       0.10163500
C       -1.73765200       0.89746800       0.64888900
C       -1.29818300       2.10062000       1.42711200
N       -2.95220100       0.30756600       0.70746600
C       -4.01329500       0.78828800       1.56330400
C       -4.82008500       1.77778100       0.82360700
O       -4.50689700       2.05393300      -0.36044000
O       -5.92417700       2.41978200       1.39807200
36
Properties=species:S:1:pos:R:3 energy=0.02040816326530612 pbc="T T T"
O       -2.16432600      -1.40123300       1.52129900
C       -1.94195000      -1.15297900       0.29888200
N       -0.66296900      -1.52381900      -0.19079000
C        0.38673900      -2.14060700       0.56191800
C        0.85049200      -1.33777100       1.71992300
O        1.83265000      -2.03497800       2.47400400
C        1.22091700       0.07238000       1.55413500
N        0.31812700       0.83367000       0.74725200
C        0.52942500       2.28015700       0.96249700
C        1.63643000       2.82903800       0.12798300
C        2.72870400       1.86341900      -0.03668500
O        3.98353800       2.13960800       0.35528100
C        5.12869000       1.40630000       0.29072100
C        6.28358300       1.95563500       0.78291200
C        7.45011800       1.25305300       0.73502600
C        7.44575900      -0.01412500       0.18566500
Cl       8.97267000      -0.90169200       0.13465500
C        6.29438200      -0.57859300      -0.31228300
Cl       6.29344400      -2.18244900      -1.01050900
C        5.11644100       0.14700400      -0.25742100
C        2.33779000       0.54031500      -0.55409000
C        0.79388900       0.56655700      -0.65772800
C       -2.96354100      -0.52010900      -0.52201500
C       -2.66607300       0.29306300      -1.59250300
N       -3.64540200       0.87541100      -2.34068200
C       -4.95166400       0.69457300      -2.08329500
O       -5.85958900       1.22025700      -2.75888300
C       -5.29168800      -0.11371900      -1.01860500
C       -6.62174700      -0.34401300      -0.68988000
F       -7.56986800       0.24567300      -1.44454500
C       -6.92803400      -1.15617500       0.38603500
C       -5.94732300      -1.74683700       1.14359400
C       -4.63540000      -1.51703100       0.81501300
C       -4.30763600      -0.70740400      -0.25628300
H       -0.03034700      -1.33875600       2.45830700
H       -3.41623000       1.49617500      -3.15731200
29
Properties=species:S:1:pos:R:3 energy=0.02666666666666667 pbc="T T T"
N       -1.28880200       6.06259800       1.74559000
C       -1.51661800       5.01394800       2.26181800
C       -1.81243700       3.73932400       2.87336400
N       -1.99203900       2.63281800       1.95846800
C       -1.01923600       2.21895900       1.03598900
O        0.05943000       2.86662700       1.02101100
C       -1.26042700       1.08609200       0.14465000
C       -2.59100700       1.13245000      -0.55987300
C       -3.70093100       0.87181900       0.41794900
C       -3.49984000      -0.39829700       1.18879600
C       -2.16631600      -0.37057500       1.93999200
C       -1.06235000      -0.20782200       0.90667200
C       -1.04795700      -1.36644700      -0.00247900
O       -1.99427100      -2.21772300      -0.02936200
N        0.03714300      -1.56433500      -0.88721400
C        0.05604800      -2.68961800      -1.82967000
C        1.14806000      -2.38907600      -2.85428500
N        2.37878800      -2.29816100      -2.05780100
C        3.50050500      -3.08814300      -2.51346100
N        3.93523500      -4.17763600      -2.32936400
C        5.02112200      -4.64798900      -2.90740800
C        5.71729000      -3.99693200      -3.71711700
S        4.71454100      -2.37978700      -3.72816900
C        2.43199600      -1.45935500      -0.88308400
C        1.15232600      -0.64878800      -0.84566900
C       -2.99356900       3.84117900       3.87450600
C       -1.59881900       3.51509200       4.31541200
H       -0.49800000       1.11027100      -0.68687400
H       -0.10986400      -0.19049100       1.47939000
39
Properties=species:S:1:pos:R:3 energy=0.027210884353741496 pbc="T T T"
C        0.52377300       5.17836600      -1.76406500
C       -0.44255800       4.12026000      -1.36942800
C       -1.80702700       4.27371000      -1.48141400
C       -2.65078300       3.24256600      -1.09326800
C       -2.16711100       2.05357400      -0.59269900
N       -3.10836900       1.06058100      -0.22359700
C       -2.77708700      -0.20893700       0.30410200
O       -1.55561100      -0.46197900       0.45130500
C       -3.76689100      -1.20856100       0.67412900
C       -3.35009200      -2.41808900       1.18064700
C       -4.26139700      -3.40958000       1.55022600
N       -5.59757300      -3.16838100       1.40358500
C       -6.04067000      -1.99858400       0.91224900
N       -7.42761700      -1.80452200       0.78290600
C       -8.37724300      -2.82969500       1.16471800
C       -9.37098000      -2.16844700       2.10944500
O      -10.00627600      -1.09069600       1.50329200
C       -9.51541400      -0.78826200       0.25561300
C       -8.00484900      -0.56348500       0.25780000
C       -5.12584200      -1.01787900       0.54718000
C       -0.80185100       1.92541600      -0.49095900
C        0.06722200       2.94176900      -0.87217500
N        1.49306700       2.77004800      -0.75054400
C        2.07271300       1.59746900      -0.25312300
O        1.30975900       0.66106100       0.09952000
C        3.50210300       1.38161900      -0.11344400
C        4.37996700       2.37702900      -0.48601600
C        5.75289600       2.22549000      -0.37453400
C        6.26525500       1.05315700       0.12046300
O        7.63230400       0.86184500       0.24849300
C        8.24044500      -0.29923500       0.73968300
C        7.89376200      -1.47877400      -0.11087200
C        7.19450100      -1.32978500      -1.27602000
C        6.86463900      -2.40101800      -2.07415000
C        7.26438800      -3.64994000      -1.66140300
C        7.96517900      -3.74915200      -0.48279800
N        8.28562200      -2.70802900       0.29264700
C        5.41245700       0.06408800       0.49137100
C        4.03518700       0.21217300       0.38113600
23
Properties=species:S:1:pos:R:3 energy=0.02775510204081633 pbc="T T T"
C       -1.29933300       2.14742200       3.99215300
O       -0.64824100       1.43767900       2.95979900
C       -1.33748000       1.10443400       1.80655300
C       -2.65543900       1.47226600       1.68130300
C       -3.41818000       1.17868000       0.56070600
C       -2.82279400       0.48691400      -0.47097700
N       -3.49685300       0.16261700      -1.59552800
C       -2.91554000      -0.51182000      -2.59972300
C       -3.70944700      -0.83439400      -3.80519800
C       -1.59521200      -0.89057500      -2.49507500
C       -0.84778700      -0.59145000      -1.37378000
N        0.51238200      -0.95318400      -1.20889200
C        1.33338800      -0.80675900      -0.17816000
C        2.54679900      -1.33218100      -0.55050700
C        3.82757600      -1.43372800       0.21133900
N        3.74587600      -0.83720900       1.51063000
C        3.78599500       0.57410400       1.62281500
C        3.70170100       1.20120900       2.95437100
O        3.89210600       1.25393600       0.57775900
N        2.43905300      -1.79103300      -1.81017100
N        1.19645600      -1.54950900      -2.18682100
C       -1.48498300       0.10225900      -0.36740900
C       -0.75004500       0.41032100       0.76481400
35
Properties=species:S:1:pos:R:3 energy=0.03360544217687075 pbc="T T T"
C        3.08083000       2.27177000       1.12735500
C        2.73465900       0.80106300       1.07776500
C        1.77243800       0.37988700       2.14408700
C        2.54867200       0.25986900      -0.29857800
N        1.26046900       0.14110800      -0.84229600
C        0.16675500      -0.62955200      -0.46125700
O        0.34515500      -1.35972800       0.56225700
C       -1.06028300      -0.57658300      -1.20126000
N       -2.09328700      -1.22588800      -0.87561600
O       -2.05146300      -2.03777900       0.25716000
C       -3.30966200      -2.44467100       0.79439600
C       -4.05662900      -1.21759100       1.16123500
C       -4.57200700      -0.37554500       0.21061400
C       -5.27073300       0.75004500       0.62402800
O       -5.76761900       1.56495300      -0.19104700
C       -5.42481100       0.98184100       1.97994800
O       -6.13074200       2.10897200       2.44588000
C       -4.89656600       0.11912200       2.91412500
N       -4.21233800      -0.97994300       2.49030100
O       -3.68046100      -1.84944100       3.40291900
C       -1.10073100       0.27730100      -2.42067400
C       -2.41168000       0.36348900      -3.13024600
S       -1.93818900       1.48069100      -4.56391600
C       -0.22253700       1.64125300      -4.03949400
N        0.75955600       2.42578000      -4.76630300
N       -0.17989900       0.92802500      -2.96800200
C        3.22612100      -0.94891300       0.26020000
O        3.25032000      -2.19442300       0.10570300
N        3.91662900      -0.07175200       1.13960000
O        5.08494000       0.04807200       1.78488400
S        6.39215500       0.28050200       0.78856700
O        6.07392800       0.33886400      -0.65768400
O        7.41130700      -0.83017300       0.98049600
O        7.12886200       1.75510900       1.20514400
H        3.22683900       0.77088300      -1.04029300
16
Properties=species:S:1:pos:R:3 energy=0.002108843537414966 pbc="T T T"
C        1.09519800      -2.02297900       0.83674300
C        1.44445100      -0.55630400       0.84714800
N        2.83594800      -0.29724400       0.70807200
C        3.37474200       0.47687000      -0.15898200
N        4.81845200       0.64872900      -0.18630200
N        2.55071000       1.15719900      -1.08289200
C        1.27930600       0.98881900      -1.03830400
N        0.39765300       1.66468700      -1.96402700
N        0.62301400       0.14828900      -0.10572600
C       -0.78313900      -0.05070800      -0.04097400
C       -1.59889000       0.74606800       0.73717300
C       -2.96006700       0.55471700       0.80105800
C       -3.58150800      -0.44635300       0.08852700
Cl      -5.31093400      -0.70534600       0.15680800
C       -2.77257000      -1.24522200      -0.69022500
C       -1.41236500      -1.06122200      -0.75991800
25
Properties=species:S:1:pos:R:3 energy=0.006802721088435375 pbc="T T T"
C       -2.48420500       2.69067400      -1.79379400
C       -3.24992800       2.45535200      -0.50964400
C       -2.52753700       3.15781200       0.62115500
O       -3.24110900       3.03274000       1.81134800
N       -3.40307600       1.05607600      -0.21951700
C       -2.21143200       0.28380900      -0.05087700
N       -0.97368300       0.83202700      -0.15667900
C        0.05869700      -0.01311700       0.02606900
S        1.69782100       0.74362000      -0.12041600
C        2.99240800      -0.48999900       0.14493400
C        4.29655800       0.20346600       0.00941100
C        4.92315000       0.78025300       1.09463300
C        6.15305300       1.43023400       0.94795800
C        6.77523500       1.51594300      -0.27419700
C        6.16475900       0.94708700      -1.36410500
C        4.95534300       0.31311600      -1.19539100
N       -0.03451200      -1.30805500       0.29488700
C       -1.29368300      -1.92241200       0.41430700
N       -1.51963300      -3.16690300       0.67174800
C       -2.77510000      -3.63358300       0.76047000
O       -3.27348200      -4.78320700       0.99635000
S       -3.75215700      -2.12117500       0.43924900
C       -2.31524200      -1.00940600       0.21751100
H       -4.25516700       2.90738200      -0.57337300
H       -0.70707700      -3.90173200       0.83007100
31
Properties=species:S:1:pos:R:3 energy=0.006802721088435375 pbc="T T T"
C        0.68203200      -2.76823800      -1.13904600
C        1.92033000      -1.92634800      -0.99422900
C        3.03864200      -2.21459500      -1.74554500
C        4.18020800      -1.45271400      -1.62399800
C        4.17171500      -0.40134300      -0.73564200
N        5.34149600       0.39101100      -0.60127500
C        6.52546400       0.15059000      -1.34245400
O        6.56677300      -0.80164200      -2.16259100
C        7.75151300       0.98877900      -1.19509300
C        8.36064500       1.01370900       0.21453200
C        7.59432700       2.19925700      -0.26069800
C        3.04069400      -0.11621400       0.01883500
C        1.89844200      -0.87817300      -0.10246900
N        0.73387100      -0.60639300       0.65598500
C        0.70895300      -0.78018800       2.00413500
N       -0.38817000      -0.52608000       2.73302600
C       -1.53578800      -0.08433100       2.19072300
C       -2.65236300       0.17028400       2.96219000
C       -3.79218900       0.62067000       2.33726300
C       -3.82927000       0.81684400       0.97082900
N       -5.03438900       1.28090100       0.40007400
C       -6.17963500       1.53836200       1.22082000
C       -7.40556900       1.00429400       0.49999700
N       -7.01358900       0.02719800      -0.52485200
C       -8.26123800      -0.41709700      -1.14425400
C       -6.24089100       0.66130900      -1.57392300
C       -5.10949700       1.49608100      -1.01894000
C       -2.70136000       0.55686300       0.21216700
C       -1.55413300       0.10592800       0.82354100
C       -0.40139400      -0.16505000       0.08727500
O       -0.41563200       0.00858400      -1.16638200
26
Properties=species:S:1:pos:R:3 energy=0.00795918367346939 pbc="T T T"
C        6.51234700      -2.12019200       1.22022000
S        5.87663700      -0.66182000       1.96906100
O        5.50972400      -0.83783900       3.40158900
O        6.90677400       0.43337600       1.82283100
C        4.44792400      -0.16600500       1.09643200
C        4.49735100       0.69141200       0.02202000
C        3.38590700       1.09869500      -0.68409000
C        2.15071600       0.63862400      -0.31605500
C        0.92257700       1.01900400      -1.00833200
C        0.93696300       1.87595200      -2.08818500
N       -0.20779400       2.23006000      -2.73291600
C       -1.39399400       1.74706300      -2.32752500
N       -2.61217700       2.10342100      -2.98777600
C       -1.40819000       0.88969200      -1.24710300
C       -2.67186700       0.34908700      -0.78232400
O       -3.74780800       0.65298900      -1.35178600
N       -2.72703200      -0.53484800       0.32459100
C       -4.00781300      -1.02686600       0.72505800
C       -5.16024400      -0.66317500       0.06675500
C       -6.38273900      -1.14715400       0.46715000
C       -6.44156800      -1.99811800       1.53194500
C       -5.30413700      -2.37541100       2.20483900
C       -4.07911800      -1.89011700       1.80321900
N       -0.26426900       0.53818700      -0.60580300
C        2.07261900      -0.22169900       0.75708200
C        3.18921000      -0.62431900       1.45819200
36
Properties=species:S:1:pos:R:3 energy=0.0 pbc="T T T"
F       -2.32569200      -0.20502800       2.04884500
C       -2.40747100      -0.25134900       0.69319600
C       -1.52110400      -1.01062000      -0.01797000
C       -1.57168000      -1.08383200      -1.40226400
C       -0.58698500      -1.91878700      -2.06336300
C       -1.01899800      -2.75677600      -3.07027500
C       -0.13710900      -3.57835700      -3.74155300
C        1.20112000      -3.52208500      -3.35710400
C        1.62561400      -2.67661400      -2.34399600
N        2.91408500      -2.61909900      -1.96944500
C        3.31808300      -1.79299100      -0.98137300
C        2.43302900      -0.97411100      -0.31383100
C        2.86429600      -0.07602600       0.75926000
C        2.08363000       0.78574300       1.49981000
N        2.87179700       1.43845000       2.39450600
N        4.10723400       0.99824700       2.21870800
C        5.23671700       1.47590700       3.00698200
C        5.82637100       2.68753600       2.31491100
C        6.20160400       2.35888500       0.88138600
N        6.76593700       1.01209300       0.80448000
C        7.40276900       0.77970700       2.10556800
C        6.31715700       0.42638500       3.08975600
C        4.13868900       0.07485700       1.23050000
N        1.14391500      -1.03363700      -0.69069600
C        0.73607400      -1.85843400      -1.67819800
C       -2.53596600      -0.37363800      -2.05085800
C       -3.43744900       0.39944200      -1.32152500
F       -4.39005800       1.12653500      -1.99415800
C       -3.40812500       0.48620400       0.03557200
C       -4.28863600       1.27524000       0.89485100
N       -5.33914100       2.00463300       0.29499700
C       -6.36554300       1.20293100      -0.32138100
C       -7.30071900       0.58302400       0.69013400
O       -7.85215400       1.59112300       1.50242200
C       -6.80501700       2.12742300       2.25649300
C       -5.89627300       2.89702100       1.31114200
28
Properties=species:S:1:pos:R:3 energy=0.0 pbc="T T T"
C        2.48104900       3.75915600      -1.61123200
C        1.07406900       3.43972000      -1.22164600
O        0.21630400       4.38193700      -1.14285600
N        0.72424600       2.08314500      -0.94649000
C       -0.62755000       1.81665200      -0.57780700
C       -1.57501600       2.80112700      -0.47981400
C       -2.86018800       2.48195900      -0.11705200
C       -3.23835400       1.19064200       0.15605300
C       -2.26732800       0.20322100       0.05259400
C       -0.98994400       0.52055500      -0.30808900
C       -0.25805500      -0.64813400      -0.32613800
S        1.41640800      -0.90112400      -0.70901000
O        1.57116800      -2.35907800      -1.12928500
O        1.92629600      -0.10172700      -1.84322200
C        2.38146300      -0.74211300       0.74714500
C        2.66487600      -1.81225000       1.56946200
C        3.42626500      -1.66562800       2.71079800
C        3.94081100      -0.43537100       3.08235400
Cl       4.90666700      -0.26553200       4.53593200
C        3.65128200       0.62879800       2.25256100
C        2.89043700       0.48695200       1.11039300
C       -1.14021700      -1.66130300       0.03416500
C       -0.77809500      -3.10065400       0.14584600
N       -2.35342500      -1.14350900       0.26227500
C       -3.56280100      -1.82572400       0.65726100
C       -4.33389200      -2.26085900      -0.53954800
O       -5.41609900      -2.87142700      -0.32497800
O       -3.87037800      -1.99943200      -1.82098900
37
Properties=species:S:1:pos:R:3 energy=0.21088435374149658 pbc="T T T"
C       -4.54388000      -1.11032400       0.72469700
C       -3.42553800      -0.15176300       0.31516400
C       -2.45203600      -0.84892400      -0.55357300
O       -2.86060100      -1.36272700      -1.61928300
O       -1.11695400      -0.95390800      -0.23515500
C       -0.16222700      -1.60595100      -1.03033100
C        0.94721400      -0.67752900      -1.51075200
N        2.06532600      -1.54113600      -1.83795200
C        3.02136300      -0.95266100      -2.71793600
C        3.90030200      -0.04219200      -1.94264100
O        4.83538500       0.60251600      -2.51022300
N        3.71854300       0.12636700      -0.56915000
C        4.49947200       0.96869000       0.26317400
C        5.53998100       1.73201800      -0.18069400
C        6.23343300       2.51815000       0.72337400