27
Properties=species:S:1:pos:R:3 energy=0.0439188969472542 pbc="T T T"
O        3.49935900      -1.38978500      -0.59230800
C        3.76128500      -0.63975000       0.37176500
N        2.74125400      -0.16077700       1.19959800
C        1.36208800      -0.42635100       1.02865000
C        0.71310300       0.97963700       0.82401800
C        0.79039700       1.22991900      -0.73119600
N       -0.26850200       0.39363300      -1.26811300
C       -1.15591800       0.99987500      -2.08989500
C       -2.49093000       0.39864600      -2.40883800
C       -3.23224700       0.29040100      -1.10828400
C       -2.72477000       0.48105300       0.16900500
N       -3.72610500       0.27587600       1.04147500
C       -4.84443200      -0.03646200       0.37996600
C       -6.11661700      -0.34070400       0.80432200
C       -7.08983100      -0.63749500      -0.12117500
C       -6.75852100      -0.62130100      -1.46749800
C       -5.48904500      -0.32152200      -1.91156400
C       -4.53522800      -0.02568600      -0.95661100
C       -0.40803600      -0.84154500      -0.63503200
C        0.96851000      -1.30272900      -0.10267400
C        5.14479800      -0.22800000       0.67210600
C        5.68475900       0.80616600      -0.09527700
C        6.96428300       1.26496500       0.15597800
C        7.71173900       0.69972400       1.16688200
C        7.19929700      -0.32531300       1.94302800
C        5.88877100      -0.77247400       1.66369100
H       -3.58946100       0.36735800       2.06798000
26
Properties=species:S:1:pos:R:3 energy=0.0133402438387857 pbc="T T T"
C       -4.16572400      -2.06553800      -1.72820100
O       -3.32063400      -1.42482700      -0.79093500
C       -3.79967800      -0.31946700      -0.10839400
C       -5.07239600       0.17403500      -0.31453400
C       -5.55960400       1.28724200       0.37082100
N       -6.86804000       1.79695000       0.15867800
C       -4.67695900       1.86586700       1.27511900
Cl      -5.29712500       3.27907500       2.14261200
C       -3.40599900       1.39870500       1.50258900
C       -2.96426600       0.29111800       0.79981000
C       -1.63392000      -0.25240800       0.99366500
O       -0.89133800       0.34824400       1.85039800
N       -1.10903400      -1.37619800       0.31706900
C        0.23405500      -1.79254700       0.62492700
C        0.84542000      -0.94357400       1.73695300
C        2.24908400      -1.48481200       1.93045500
N        3.07143900      -1.21346700       0.76418700
C        4.02369300      -0.19107200       1.06375500
C        4.91315900       0.16155400      -0.05228900
C        5.88782400       1.12659300       0.21755400
C        6.78271000       1.55375700      -0.71983100
C        6.70608600       0.99197800      -1.99600900
C        5.76095700       0.04311000      -2.29126800
C        4.87111600      -0.36575900      -1.31852700
C        2.27597300      -0.96542600      -0.41960400
C        1.14319800      -1.92313700      -0.54289200
29
Properties=species:S:1:pos:R:3 energy=0.0086159528284628 pbc="T T T"
O        2.80509200      -0.16029900      -1.78915400
C        3.39351500       0.40600900      -0.84355600
C        2.63768000       1.25232400       0.07660300
C        1.16773100       1.33081600      -0.26015400
C        0.56408600      -0.04094500      -0.20957400
N        0.68473700      -0.65993300       1.09896600
C        0.06337700      -1.96909100       0.99908600
C       -1.24958400      -1.81664600       0.32202000
C       -1.83136800      -0.46089700       0.33059300
N       -3.27114500      -0.45874700       0.17813400
C       -4.11585400      -1.49280800       0.31575300
O       -3.74537000      -2.67733800       0.61465700
N       -5.38038100      -1.09629600       0.09530100
C       -5.31743000       0.22517600      -0.18788000
C       -6.32017100       1.15174200      -0.49695300
C       -5.97095200       2.46108900      -0.74725800
C       -4.66171700       2.85671600      -0.69581900
C       -3.66990900       1.94759000      -0.39172500
C       -3.99455500       0.61095200      -0.13284100
C       -1.40263900       0.43800700       1.43033400
C       -0.10414000       0.08323800       2.07265600
C        4.81556500       0.21844900      -0.66926600
C        5.49725100      -0.58475000      -1.55329800
C        6.86014800      -0.78549000      -1.41472300
C        7.54959800      -0.17476200      -0.37841600
F        8.88119300      -0.37012800      -0.24200800
C        6.86369800       0.62489800       0.49954300
C        5.49512700       0.83021600       0.36546900
H       -6.24358300      -1.68909200       0.13419300
34
Properties=species:S:1:pos:R:3 energy=0.003613173784704 pbc="T T T"
C        9.20313200       1.94355100      -0.58399300
O        8.26942200       1.53608600       0.39573700
C        7.17315700       0.78341300       0.04194400
C        6.23632600       0.36324000       0.96270400
C        5.17192200      -0.37969400       0.55261300
C        4.96036000      -0.75126400      -0.75678000
C        3.78777800      -1.56217000      -1.16731200
C        2.65881200      -0.63403400      -1.51805800
N        2.31651000       0.16675300      -0.38206200
C        1.22525200       1.07235800      -0.70091700
C        0.15994800       0.22692100      -1.39297400
C        0.11617700      -1.16445700      -0.88746300
N       -1.04968800      -1.87498900      -1.12580700
C       -2.34635800      -1.82411800      -0.59082000
N       -3.29875900      -2.69653300      -1.10889600
C       -4.41885300      -2.52696600      -0.43698200
C       -5.69325700      -3.11205600      -0.50502900
C       -6.66164400      -2.70715200       0.35282800
C       -6.46943100      -1.73718900       1.30715400
C       -5.21584900      -1.16462000       1.37090900
C       -4.20167900      -1.56754000       0.49509700
N       -2.90933100      -1.13053700       0.39619800
C       -2.34481900      -0.14952300       1.27372700
C       -2.64738500       1.25391400       0.92674300
C       -3.89209300       1.76560300       1.34716800
C       -4.26585800       3.06391200       1.09040800
C       -3.44330400       3.93469400       0.40806300
F       -3.81865400       5.22059700       0.15621600
C       -2.22257400       3.44221000      -0.00739200
C       -1.86140300       2.13878200       0.25706700
C        0.63326500      -1.33343900       0.50686500
C        1.97450800      -0.68296300       0.72122500
C        5.89186500      -0.33645300      -1.68861400
C        6.98250500       0.42366400      -1.27460800
35
Properties=species:S:1:pos:R:3 energy=0.0327960515399637 pbc="T T T"
C       -3.06261600       1.11676100      -3.04496400
C       -3.61210800       0.63569100      -1.71708700
C       -4.99585700       0.03488000      -1.96850600
O       -3.68062200       1.71385700      -0.86349900
C       -2.69512000       1.55189200       0.08362600
C       -1.32343300       1.98559300      -0.42010900
C       -0.48061900       0.75793000      -0.49875300
C        0.93057700       0.92805000      -0.06070700
C        1.69385600       1.74703400      -1.11038000
C        3.13421300       1.93521300      -0.69115400
C        3.75174200       0.64921100      -0.21312800
C        4.92855300       0.27518700      -0.59578500
C        5.53115000      -0.96674000      -0.13708200
O        6.69580500      -1.32043600      -0.52609700
C        4.75119400      -1.77676500       0.77591600
C        3.57105000      -1.39799100       1.15718300
C        2.95113800      -0.16746400       0.71413400
C        2.65770800       0.75885400       1.91508000
C        1.61841000      -0.40537200       0.00414600
F        1.88070300      -0.80449400      -1.29003500
C        0.87036200      -1.46272800       0.71617700
O        0.97939300      -1.39846100       2.10296600
C       -0.60660400      -1.50242100       0.38865600
C       -1.15849800      -0.13726600       0.55079000
C       -0.87507300       0.49078000       1.89163400
C       -2.59166300       0.03177600       0.16931700
C       -3.50384000      -0.55055000       1.14296900
O       -3.37010000      -0.28198100       2.32122600
C       -4.59519500      -1.46403300       0.74476900
O       -5.34409300      -1.90189900       1.83402700
O       -2.82697800      -0.33457700      -1.13765700
H       -2.92299200       1.99773700       1.06438900
H       -0.55766800       0.22678500      -1.46752500
H        0.97368300       1.49476300       0.87447200
H        1.28354200      -2.45881600       0.39595100
39
Properties=species:S:1:pos:R:3 energy=0.0018338520381405 pbc="T T T"
C        5.66981400      -0.52541300      -3.12991300
C        4.77815100      -1.55992100      -2.43438200
C        4.26351700      -1.01703300      -1.13431500
O        5.02230300      -0.97850700      -0.14461500
O        2.98109100      -0.55864400      -0.99334100
C        2.41017300      -0.03863100       0.16168900
C        3.14316300       1.18882300       0.64583900
O        2.78461500       1.77487700       1.65234000
S        4.55857400       1.82275200      -0.23938600
C        5.21328800       3.29380200       0.58304400
F        6.30790500       3.73905300      -0.15043800
C        2.45188400      -1.01608200       1.34046900
C        2.60070100      -2.43447200       0.81655700
C        1.04151900      -0.93440700       1.94757000
C        0.21753800      -0.78904500       0.72522100
C       -1.16352300      -0.26773400       0.91917100
C       -1.93998800      -1.18075500       1.79562300
C       -3.41699700      -0.85299800       1.91676900
F       -4.10013600      -1.98649700       2.28878300
C       -3.94043900      -0.43376500       0.57693900
C       -5.09034600      -0.87355500       0.17640800
C       -5.67091300      -0.52874300      -1.10024500
O       -6.77821000      -0.92251900      -1.53926600
C       -4.89210700       0.36868000      -1.96902700
C       -3.73439500       0.80168300      -1.54037200
C       -3.13191400       0.48080600      -0.26358400
C       -2.85663100       1.74172200       0.57097000
C       -1.79202600      -0.21830200      -0.48461100
F       -2.06828300      -1.48509500      -0.94743300
C       -0.99139500       0.60069300      -1.43088100
O       -1.16951000       1.96363400      -1.26571000
C        0.48688000       0.21322700      -1.44925800
C        0.97984000       0.30323900      -0.04259500
C        0.61241700       1.67225000       0.49123400
H        3.21999300      -0.74637100       2.07665600
H        0.15542200      -1.70814400       0.10395200
H       -1.17196300       0.79549300       1.27930000
H       -3.62919200      -0.06463500       2.65565800
H       -1.36081900       0.36053300      -2.46482100
32
Properties=species:S:1:pos:R:3 energy=0.0133402438387857 pbc="T T T"
O        4.13404200       2.59545200      -0.23221700
C        4.66641700       1.51391500       0.06265500
N        5.98866300       1.32754600       0.21558500
C        6.12763500       0.01737600       0.53132200
C        7.27906200      -0.73492400       0.79559700
C        7.15316900      -2.08431900       1.09219900
C        5.92430200      -2.66322000       1.12562900
C        4.79124600      -1.89846000       0.86112500
C        4.89528000      -0.55684500       0.56415400
N        3.97584400       0.37470400       0.27038600
C        2.50645500       0.23109200       0.18253600
C        2.20858100      -0.17918100      -1.22024500
C        0.78366900      -0.37965000      -1.57128000
N        0.13412500      -1.38389400      -0.74421100
C       -1.22304200      -1.66050200      -1.23099900
C       -1.85785700      -0.38022300      -1.75428500
C       -1.83269000       0.68653100      -0.64975800
N       -3.25023000       1.00801100      -0.42987200
C       -3.89269400       2.15988600      -0.45090400
O       -3.36750500       3.28270400      -0.67933900
N       -5.21471400       1.93325500      -0.18542500
C       -5.40114600       0.60639500       0.00645800
C       -6.47540700      -0.19512400       0.29754700
C       -6.36492500      -1.56080000       0.44174100
Cl      -7.71047800      -2.60501200       0.81258900
C       -5.13006100      -2.12439900       0.28562100
C       -4.04691100      -1.33231100      -0.00581900
C       -4.14461900       0.04091100      -0.15336800
C       -1.37998300       0.00869400       0.63243400
C       -0.08015800      -0.69524400       0.54620000
H        6.78097500       2.01421400       0.12037700
H       -5.97704500       2.63342200      -0.13152700
32
Properties=species:S:1:pos:R:3 energy=0.0133402438387857 pbc="T T T"
C       -4.39887200       3.09891700       0.30162300
O       -3.81812100       1.80595400       0.28923700
C       -4.50914600       0.73555700       0.91026800
C       -5.72392500       0.91214600       1.52205900
C       -6.35120600      -0.15480500       2.10546900
N       -7.60233900      -0.01941000       2.74023000
C       -5.72901500      -1.37584800       2.05372700
Cl      -6.54873100      -2.75335800       2.79994800
C       -4.50879300      -1.53838600       1.43681800
C       -3.83002800      -0.46756100       0.82338100
C       -2.55013900      -0.63721200       0.19151800
O       -2.01520600      -1.78164400       0.18131700
N       -1.81663500       0.39316500      -0.43322100
C       -0.54463100       0.24634800      -1.04053400
C        0.57398400       0.11381500      -0.02578000
C        1.90528600      -0.08456700      -0.70727800
N        1.80053700      -1.32168000      -1.44274700
C        3.07598400      -1.82917100      -1.83705300
C        3.78370300      -1.00639900      -2.85577600
C        4.04604700       0.37536600      -2.38707500
O        4.74244100       0.62055200      -1.36582000
C        5.30382200       0.75671300      -0.18852700
C        6.53627700       1.47104300      -0.11895300
C        7.11070700       1.60528700       1.15243500
C        6.58847800       1.11848300       2.28176900
F        7.18349200       1.28092800       3.51428200
C        5.38304800       0.41361200       2.24311900
C        4.79847700       0.27033900       0.97854900
C        0.92900400      -1.15986800      -2.54592900
C       -0.39846700      -0.57984500      -2.22495100
O       -1.42615700      -0.81955000      -3.05372300
C       -1.98987700       0.31107900      -3.63893300
26
Properties=species:S:1:pos:R:3 energy=0.0769872664264999 pbc="T T T"
C        5.89523700      -0.19144800       0.94922900
C        5.13430900       0.46383400      -0.21243500
C        5.94424600       0.12576800      -1.47096200
N        3.88546600      -0.25499000      -0.34504300
C        3.07157900      -0.12237000       0.86739100
C        2.04299900      -1.22399000       0.78279900
C        1.23238500      -1.18574800      -0.46915700
N       -0.12014900      -0.80518700      -0.14148800
C       -0.51395200       0.53016900      -0.39758800
O        0.24842500       1.38846100      -0.89269700
C       -1.90812900       0.91178600      -0.05312100
C       -2.19672500       2.32922900      -0.35812100
C       -2.68180900       2.66425600      -1.58687200
C       -2.94454100       3.98150000      -1.84983100
C       -2.73027500       4.96873000      -0.90429400
C       -2.24151700       4.60449200       0.32491700
C       -1.97135000       3.29109000       0.60975800
C       -0.99762500      -1.76250600       0.41918300
C       -0.76111300      -2.33757800       1.66574000
C       -1.60911700      -3.27160400       2.22387300
C       -2.74365900      -3.67452500       1.54997000
Cl      -3.82648300      -4.86556300       2.25791000
C       -2.98615500      -3.11188000       0.31677800
C       -2.13699700      -2.17952500      -0.23725100
C        1.83132600      -0.51790100      -1.62642300
C        3.08362400       0.24549900      -1.42226400
36
Properties=species:S:1:pos:R:3 energy=0.0300111712056047 pbc="T T T"
C        6.03667300      -0.64321400       0.62027100
C        5.68174200      -1.16522700      -0.77578700
C        4.58989300      -2.20140300      -0.70271400
C        3.31575900      -1.66318900      -0.09450900
O        3.52701200      -1.20828000       1.20232300
C        2.54593800      -0.24605000       1.43696800
C        1.18442800      -0.92578900       1.66713800
C        0.41980900      -0.74129500       0.37895100
C       -1.05368000      -0.55664700       0.59841800
C       -1.73843200      -1.78778700       1.08444500
C       -3.11990600      -1.39771500       1.59157100
C       -3.83141100      -0.65320200       0.46530000
C       -5.04765200      -0.97503800       0.17415100
C       -5.82751100      -0.33611100      -0.88510900
O       -7.00538100      -0.66318100      -1.14974700
C       -5.10883800       0.71143300      -1.59993500
C       -3.89082900       1.02145300      -1.29321800
C       -3.11064200       0.40945500      -0.25256000
C       -2.93986700       1.52744400       0.82689500
C       -1.72035000      -0.06374300      -0.65668200
C       -1.01638800       1.03189000      -1.37105000
O       -1.23206400       2.28979700      -0.76243700
C        0.48743400       0.86313900      -1.43432100
C        0.95315000       0.64771100      -0.02814100
C        0.45019200       1.60756300       0.96899800
C        2.43596300       0.39977000       0.08392800
C        3.25225300       1.57741300      -0.14209600
O        3.97497100       1.56839000      -1.16012200
C        3.32625100       2.77279900       0.68844700
O        2.65361200       2.70704200       1.88406100
O        2.77761600      -0.63800900      -0.82282700
H        2.79190100       0.42716900       2.25822800
H        0.69637800      -1.42210700      -0.42250200
H       -1.17379100       0.23889400       1.36535000
H       -1.85696200      -0.91937100      -1.33671800
H       -1.42727100       1.08407100      -2.40496800
20
Properties=species:S:1:pos:R:3 energy=0.1378544114588987 pbc="T T T"
C        7.05680700      -0.44729300      -0.18105700
C        5.82404700      -0.50931600       0.68212900
C        4.63463700      -0.33102800      -0.15964000
O        4.75737400      -0.16284700      -1.38481400
N        3.31007600      -0.34481300       0.39601400
C        2.19211900      -0.16260100      -0.49818600
C        0.87109000      -0.20168900       0.23432200
C       -0.26802600      -0.00439200      -0.75884600
C       -0.04610500       1.34523100      -1.40120200
C       -0.41552100       2.23473800      -0.19823800
C       -1.65099400       1.50801100       0.27498600
C       -2.78291100       1.91994300       0.94318900
C       -3.79170400       1.01880300       1.25280000
C       -3.70978300      -0.31418500       0.91066500
C       -2.57925300      -0.72858700       0.24290200
C       -1.56071600       0.18190800      -0.06943200
C       -2.74645000      -2.18340100       0.00247500
C       -4.24035100      -2.38855600       0.10412000
O       -4.57212900      -1.40850900       1.10178100
H       -0.28220700      -0.82798400      -1.49396800
35
Properties=species:S:1:pos:R:3 energy=0.0069483598138766 pbc="T T T"
O       -4.52259800      -2.53637200      -0.58359600
C       -4.93880100      -1.35902800      -0.67995600
N       -6.18711900      -0.92730200      -0.53208800
C       -6.20632700       0.39893400      -0.71581500
C       -7.26387000       1.29593200      -0.66542600
C       -7.01584300       2.62897600      -0.89479400
C       -5.73847000       3.04499700      -1.16701400
C       -4.70405900       2.13652300      -1.21191800
C       -4.92867200       0.79438200      -0.98518200
N       -4.16024200      -0.29866200      -0.95959600
C       -2.71127400      -0.30358300      -1.20116700
C       -2.07175100       0.35121200      -0.01544400
C       -1.72462300      -0.69170100       1.03508400
N       -0.70077600      -1.53812500       0.40035300
C        0.29451200      -0.66345500      -0.14099900
C        1.39444300      -1.45739200      -0.81773300
C        2.45506800      -0.55476200      -1.39592400
C        3.04539300       0.24554400      -0.27704600
C        4.11039700       1.17732500      -0.73455000
C        4.22317200       2.44334600      -0.18499300
C        5.22465500       3.29693800      -0.62677800
C        6.13017500       2.94360500      -1.60260300
F        7.10764000       3.79461200      -2.02463600
C        6.01172800       1.68171400      -2.14506600
C        5.01439800       0.82260500      -1.70975300
C        3.50607100      -0.59356400       0.86091700
C        4.11583300      -1.81395900       0.64495000
C        4.53726600      -2.57907000       1.72544500
C        4.37194900      -2.16868600       3.03189200
F        4.78039800      -2.90939000       4.09217600
C        3.76210400      -0.94866200       3.23942600
C        3.34156000      -0.18467700       2.16893100
C       -1.35063600      -2.33250800      -0.58002400
C       -2.20122500      -1.63638800      -1.54978000
H       -7.00047500      -1.55935700      -0.30700900
18
Properties=species:S:1:pos:R:3 energy=0.0550250664243987 pbc="T T T"
C       -2.29415200       3.40484100       0.43577300
O       -3.04953300       2.25670100       0.85076400
C       -2.58164600       0.97135800       0.66131700
C       -3.39482400      -0.05906900       1.10161900
C       -2.94626600      -1.37458700       0.92189900
C       -1.73002600      -1.65733700       0.32497300
N       -1.07519600      -2.79348100       0.03547900
C        0.10446900      -2.55837400      -0.56137300
C        0.19542500      -1.17478700      -0.65253800
C        1.31884000      -0.37837200      -1.24440400
C        2.18157100       0.23670300      -0.14762700
N        3.24270600       1.00022900      -0.76944000
C        4.24188100       1.70121500      -0.05392800
C        5.31332300       2.47390000      -0.78257100
O        4.22654900       1.67294100       1.22104100
C       -0.93548300      -0.61819800      -0.10584400
C       -1.38771500       0.66662500       0.07677100
H       -1.42992100      -3.77030500       0.24444800
37
Properties=species:S:1:pos:R:3 energy=0.0439188969472542 pbc="T T T"
C        5.34596800      -1.47458900       0.19088300
C        3.89184300      -1.36785900       0.59185600
C        3.44022800      -2.76987700       1.01707900
O        3.66883100      -0.48894100       1.61497100
C        2.96040200       0.59166100       1.13425800
C        1.57644800       0.70948000       1.76123700
C        0.72605600      -0.03979800       0.79843900
C       -0.72893700       0.38465300       0.79241800
C       -1.34326400       0.31221400       2.14623200
C       -2.73976800       0.92055500       2.04215900
F       -3.37009100       1.05177800       3.23306600
C       -3.45847300      -0.01430700       1.09435100
C       -4.53457800      -0.61128200       1.49761800
C       -5.30611800      -1.53413800       0.67921600
O       -6.34101600      -2.09133700       1.10127900
C       -4.77797200      -1.75727300      -0.66933300
C       -3.69220900      -1.13655400      -1.04122600
C       -2.91674200      -0.21553400      -0.25498900
C       -3.00649800       1.14862500      -1.00523900
C       -1.42992200      -0.49672700      -0.20797600
C       -0.79483700      -0.34043600      -1.56459800
O       -1.13993800       0.85218500      -2.20355100
C        0.68829800      -0.54093500      -1.54944500
C        1.27769200       0.41873000      -0.53686900
C        0.83138000       1.82813000      -0.86536200
C        2.73710700       0.29628300      -0.34070700
C        3.53533300       1.29237600      -1.10202700
O        3.31340700       2.47069100      -1.08647200
C        4.66702100       0.77616800      -1.92151400
O        5.33112400       1.81397700      -2.58307900
O        3.16906200      -0.98833400      -0.50696800
H        3.46942000       1.55569200       1.29861100
H        0.83737100      -1.14652500       0.85278900
H       -0.73770800       1.45090600       0.46942600
H       -2.62933100       1.87224300       1.48814600
H       -1.30339400      -1.55070600       0.10605300
H       -1.21619400      -1.18119700      -2.19158900
29
Properties=species:S:1:pos:R:3 energy=0.0133402438387857 pbc="T T T"
C       -1.57532300       1.81783900       1.51042100
N       -1.99433800       0.68867400       0.68163900
C       -3.37757800       0.71267400       0.26006800
N       -4.10701200       0.92623300      -0.60544500
C       -5.42394300       0.84062000      -0.63728700
C       -6.28194700       1.10858600      -1.71573100
C       -7.62927100       0.96997600      -1.59403700
C       -8.24095400       0.56678600      -0.42951200
C       -7.39508400       0.29775000       0.65751400
C       -6.01779400       0.44767300       0.50203200
S       -4.64234100       0.20902700       1.60103400
C       -1.12260100      -0.32123200       0.31026000
C        0.07565400      -0.00515800      -0.46361600
C        1.28129100      -0.72272800       0.03525200
N        1.06938800      -2.04397300       0.40708900
C        1.73718400      -3.04204400      -0.33353100
C        3.20608000      -2.96690900      -0.13267000
O        3.69393000      -3.05810900       1.11722300
C        4.02129800      -2.32248500      -1.13644800
O        4.38351100      -1.09061100      -1.09643400
C        4.94739300       0.00616600      -0.64542900
C        4.83990400       1.17989500      -1.40701700
C        5.37988600       2.37220400      -1.04616000
C        6.08061100       2.45295500       0.14087500
F        6.62467200       3.64552400       0.50891400
C        6.21859000       1.33807000       0.92590100
C        5.65208000       0.11536100       0.53363700
C       -0.06668600      -2.41348400       1.14781900
C       -1.33660100      -1.70928000       0.71971800
32
Properties=species:S:1:pos:R:3 energy=0.2107282261963186 pbc="T T T"
C        6.53109100       2.34421100       0.96882800
C        6.24299200       1.45003600      -0.22007300
O        5.21949400       0.53844200       0.05698500
C        3.93621800       0.88180200       0.40921800
N        3.48612200       2.12933000       0.53644800
C        2.19730200       2.35044800       0.88980000
N        1.75240600       3.69360200       1.01591800
N        1.34254400       1.33764300       1.12035800
C        1.73359100       0.07868600       1.00924600
C        3.03971500      -0.16169100       0.65109400
N        3.16304800      -1.49337600       0.61294300
C        2.00457900      -2.03855800       0.92809900
N        1.08328100      -1.05781400       1.18340600
C       -0.24141400      -1.39718100       1.54441300
O       -0.68902700      -2.35529400       0.60403600
C       -1.37631400      -1.72560500      -0.38288100
C       -0.83712000      -1.84704600      -1.76116800
O       -1.53554200      -1.01778900      -2.61830500
P       -2.97232500      -0.42985200      -1.97671800
O       -4.03317800      -1.52894300      -1.95447900
O       -3.47473600       0.86811100      -2.90926300
C       -4.59793800       1.50054100      -2.38230800
C       -5.04117400       2.65634200      -3.21728800
C       -4.41362900       1.87817200      -0.92917500
O       -2.74832000       0.16268000      -0.38419800
C       -1.46695700      -0.23421300      -0.02078400
C       -1.28319000      -0.38190700       1.47278400
C       -1.16052600       0.86038400       2.23567900
F       -2.47730100      -0.99734100       1.90711000
H       -0.27741900      -1.92112700       2.52598400
H       -2.41464300      -2.17380300      -0.39731900
H       -0.69162800       0.34149600      -0.51839000
24
Properties=species:S:1:pos:R:3 energy=0.4997220956241191 pbc="T T T"
C        6.33878700       0.29398500       1.58202900
C        5.95638400       1.55009400       0.85464200
S        5.30007900       1.19880500      -0.76208200
O        4.92708200       2.53043700      -1.37910400
O        6.31999100       0.51547000      -1.63541600
C        3.86802500       0.19315800      -0.64737500
C        3.90737700      -1.16989200      -0.65962400
C        2.72768500      -1.86846900      -0.56428100
C        1.50128500      -1.20755900      -0.45609000
O        0.26129000      -1.64009300      -0.35390000
C       -0.58002800      -0.64540200      -0.27614300
C       -2.04769800      -0.70775300      -0.15225500
C       -2.72313900      -1.89110200      -0.10279800
C       -4.09549700      -1.88303000       0.01348000
C       -4.81928300      -0.68440400       0.08261800
C       -6.19109500      -0.74201100       0.19841300
C       -6.91778200       0.41582700       0.26752700
C       -6.25138900       1.61613100       0.21894700
C       -4.86554900       1.66632700       0.10191500
C       -4.12437900       0.50421700       0.03154600
C       -2.76575100       0.46581500      -0.08376600
N        0.16210300       0.47478700      -0.33166800
C        1.46133700       0.16527300      -0.44372600
C        2.65016600       0.84938800      -0.53993700
29
Properties=species:S:1:pos:R:3 energy=0.3634797463324209 pbc="T T T"
C        4.87123200       1.69918600      -1.46232700
C        4.41933700       1.29756800      -0.13110100
C        3.48929400       2.02081700       0.66299400
O        4.90653100       0.04363300       0.24292600
P        3.52317200      -0.82589800       0.78859300
O        3.90910000      -2.27269800       0.61532500
O        3.03294600      -0.47354200       2.25589000
C        1.71115900      -0.04056500       2.40333500
C        0.84674600      -0.72788400       1.41359200
O       -0.51314400      -0.34765100       1.50553400
C       -1.07810800      -0.78286000       0.30765700
N       -2.22609400      -0.02134100      -0.10291400
C       -3.13940200      -0.73695200      -0.75778000
C       -4.44911000      -0.25935400      -0.97691000
C       -4.66466500       0.99349300      -0.44386900
O       -5.85392900       1.52422800      -0.57854100
N       -3.74857700       1.71743400       0.20186100
C       -2.51496400       1.20262300       0.36643800
O       -1.64057300       1.82005200       0.97194500
C       -0.02752000      -0.86458600      -0.73217700