41
Properties=species:S:1:pos:R:3 energy=-0.1823615575939759 pbc="T T T"
C       -8.41811500       1.83933000       1.36105000
O       -8.71311000       0.43740000       1.34375500
C       -7.90106600      -0.43364600       0.65647300
C       -8.18390700      -1.77131500       0.64089800
C       -7.36772400      -2.64203800      -0.04914800
F       -7.71546500      -3.95621400      -0.01696800
C       -6.24039200      -2.20507600      -0.74751600
C       -5.98058600      -0.85132200      -0.71378600
C       -4.80257800      -0.25846200      -1.42237900
C       -5.39019800       0.53482100      -2.59450500
O       -6.24972800       1.47906800      -2.02626600
N       -4.10826600       0.69081900      -0.59430800
C       -2.73003000       0.55650600      -0.33987900
O       -2.14397900      -0.43415600      -0.87420700
C       -1.96368700       1.50412000       0.50518200
C       -2.56580100       1.43820500       1.90894500
N       -0.57159300       1.07500900       0.56005200
C       -0.08465300      -0.23004800       0.95023200
C        1.37459700      -0.16094900       0.84100500
C        2.34448100      -1.10472700       1.08630300
C        3.68180600      -0.81489700       0.91345900
C        4.09890500       0.41650700       0.49306200
C        5.51410600       0.71361500       0.31324200
N        6.33730000      -0.14377200      -0.31232800
C        7.63983600       0.08944400      -0.49818900
N        8.42298000      -0.87898200      -1.17056900
C        7.79128600      -2.09203900      -1.63666700
C        7.16276000      -2.91021200      -0.51586200
O        8.24116200      -3.81752000      -0.57624300
C        8.68186800      -3.28204600      -1.79540800
N        8.17976500       1.24271000      -0.04092400
C        7.42696700       2.15163000       0.59428700
C        6.08667600       1.88287800       0.77098400
Cl       5.01647000       3.01259000       1.59188500
C        3.14936000       1.37703600       0.24117000
C        1.79386500       1.08272200       0.41653800
C        0.57219700       1.85913000       0.23999600
O        0.56171900       3.05616200      -0.14386400
C       -6.79393800       0.02710900      -0.02446700
H       -4.10059700      -1.02665800      -1.77426200
H       -2.05269300       2.54726800       0.17538400
36
Properties=species:S:1:pos:R:3 energy=-2.4849466505880216 pbc="T T T"
C       -4.38080800       3.63265000      -2.76860500
C       -4.14354500       3.43682700      -1.29667700
C       -3.65516500       4.75134600      -0.72471100
O       -5.33932300       3.13920400      -0.65872700
C       -3.15484200       2.35518600      -1.05380800
C       -3.52453100       1.24906300      -0.33796200
C       -2.61388400       0.24964800      -0.10677900
C       -1.30586700       0.39708900      -0.62247400
C       -0.96538600       1.50247900      -1.33059600
C       -1.89200400       2.53366800      -1.57245500
C        0.41928300       1.34281800      -1.75802700
O        1.07091500       2.19147400      -2.44090600
N        0.90042400       0.09327200      -1.28315000
C        2.20058700      -0.45985800      -1.64340800
C        3.32653200       0.01365300      -0.84982500
C        3.65487200       1.34648900      -0.68153100
C        4.73974200       1.75499700       0.05989900
C        5.55640400       0.83683700       0.67448000
Cl       6.94872600       1.30475200       1.63050100
C        5.25095600      -0.49623200       0.52246400
C        4.15073000      -0.90758700      -0.22931000
C       -0.11827900      -0.48764700      -0.48208300
O       -0.43830800      -1.79491200      -0.91347900
C       -1.48606300      -2.29619800      -0.14290900
C       -1.87250400      -3.69022700      -0.54500800
C       -3.01977700      -4.26906800       0.27595500
O       -2.70442700      -4.33223100       1.62588400
C       -0.78694500      -4.70411700      -0.81928200
C       -1.68518200      -4.24271400      -1.88494000
C        0.30137700      -0.52659300       0.94933100
C       -0.54902400      -1.17578600       1.85318900
C       -0.24872300      -1.25092500       3.19265400
C        0.90749800      -0.68314400       3.68050100
Cl       1.26915100      -0.79359900       5.40246300
C        1.75157200      -0.04340000       2.80864800
C        1.43581700       0.02278700       1.47068400
41
Properties=species:S:1:pos:R:3 energy=-3.912023005428146 pbc="T T T"
H        3.27229700      -1.10458000      -2.11541800
C        3.35057300      -0.01513300      -1.90487900
H        3.62706100       0.11711300      -0.83635100
O        4.42202600       0.47877700      -2.65185200
C        2.10803800       0.73964600      -2.29233800
C        0.82303300       0.30940900      -1.54592000
H        0.68424700      -0.76901100      -1.84587700
H        0.02708200       0.93654900      -2.01279900
O        1.07334700       0.51770800      -0.23633400
C        0.16978300       0.21639200       0.71246000
C        0.82331500       0.57330900       2.03304700
C        0.20268700       0.23537800       3.24196500
C        0.76192200       0.53457700       4.46445200
C        1.98615900       1.19613900       4.49730800
Cl       2.70404900       1.58169300       6.08330200
C        2.60059600       1.52774100       3.35093900
C        2.02870400       1.22303700       2.10618200
C       -0.20007000      -1.23599100       0.74667300
C        0.58239000      -2.37788800       0.76963200
F        1.93305400      -2.33410100       0.76266900
C       -0.04678000      -3.61069100       0.80360900
C       -1.42118800      -3.72923200       0.81369500
C       -2.13719400      -5.04106600       0.84556000
C       -1.14702900      -6.18256000       0.97855400
C       -3.12442500      -5.07038000       1.98874900
O       -2.88082900      -5.14042700      -0.32469800
C       -2.20178500      -2.59523300       0.79169900
C       -1.57400800      -1.35017000       0.75865300
C       -2.15749800      -0.02118000       0.73620900
O       -3.41370900       0.22585000       0.74033400
N       -1.08632700       0.90483100       0.70979000
C       -1.35583200       2.35297800       0.72546700
C       -1.67151800       2.80247600      -0.65637600
C       -0.95872700       3.77308600      -1.28546000
C       -1.24967600       4.23349400      -2.57926500
C       -2.31801700       3.65511700      -3.22396800
Cl      -2.72504000       4.20529000      -4.85488000
C       -3.01854200       2.68330200      -2.57774500
N       -2.72806000       2.24817600      -1.32828000
C        2.27116500       2.18088200      -2.64374600
C        1.96473000       1.12469300      -3.74476100
38
Properties=species:S:1:pos:R:3 energy=1.791759469228055 pbc="T T T"
C        5.18236400      -1.15814100      -2.58223400
C        3.88662700      -1.91561000      -2.63807100
C        4.14393200      -3.32261200      -2.11039500
O        3.41028500      -1.98396000      -3.94366900
C        2.90690000      -1.25595800      -1.75307200
C        3.36512000      -0.92593700      -0.47374900
C        2.54390200      -0.34720800       0.45553500
F        2.91153800       0.00376300       1.71403700
C        1.22102900      -0.09549700       0.08133800
C        0.74403100      -0.40754200      -1.14217500
C        1.60071000      -0.99581100      -2.07905400
C       -0.70409800      -0.26154700      -1.12357100
O       -1.48903800      -0.44028000      -2.06476900
N       -1.03846400       0.14484200       0.24488700
C       -2.44133300       0.01559000       0.68678600
C       -2.89265200      -1.40421700       0.42063700
C       -4.23256900      -1.72648800       0.38371900
C       -4.68675300      -2.98811400       0.04549200
C       -3.78489400      -3.97742700      -0.26812400
Cl      -4.27466700      -5.58775600      -0.74157300
C       -2.42816300      -3.62577900      -0.22016300
N       -2.02509100      -2.37728500       0.11324300
C        0.14819800       0.64992900       0.80444700
O        0.14415600       2.02035900       0.33624200
C       -0.61417300       2.05102100      -0.78995400
C       -0.82207700       3.42387600      -1.35834200
C       -1.72693600       3.58455500      -2.52328500
N       -2.46921900       2.51150800      -3.03158200
O       -1.83716700       4.72783700      -3.08328000
C        0.34710200       4.37193400      -1.30223700
C       -0.80881100       4.54634400      -0.32332700
C        0.37627900       0.71026400       2.22603600
C        0.74244200       1.97335300       2.76699900
C        1.05694600       2.14199400       4.07900400
C        1.03230200       1.09182500       4.95906300
Cl       1.47536400       1.27033300       6.66258200
C        0.67662000      -0.14252800       4.45410900
C        0.36026000      -0.29963000       3.11846900
45
Properties=species:S:1:pos:R:3 energy=-0.7985076962177716 pbc="T T T"
C       -9.16394500       0.42040100       2.62632200
O       -7.92308200       0.48143100       3.29526900
C       -6.72017000       0.68879100       2.65772900
C       -5.57077000       0.73056100       3.40582300
C       -4.34654300       0.93854600       2.78360600
F       -3.25326200       0.96942100       3.57283200
C       -4.28575600       1.10355200       1.41017800
C       -5.43094600       1.06431900       0.64404900
C       -5.44922500       1.23238400      -0.82358300
C       -5.37088900       2.71028800      -1.20518400
O       -6.42717300       3.34176200      -0.51182500
N       -4.40969300       0.47233500      -1.47585500
C       -4.73969900      -0.50316100      -2.42070000
O       -5.95651800      -0.69792000      -2.68386100
C       -3.75350800      -1.33849400      -3.14761600
C       -3.92966900      -1.17672400      -4.64216600
N       -2.39753800      -1.00189100      -2.74288300
C       -1.80880300       0.28717700      -2.93271800
C       -0.43970700       0.20690200      -2.38995900
C        0.57160000       1.18548600      -2.32093500
C        1.78923400       0.87562000      -1.76194300
C        2.02736100      -0.39857600      -1.26450800
C        3.33220000      -0.67911600      -0.68201400
N        3.94949900       0.14924400       0.16885100
C        5.17046800      -0.15016900       0.69200800
N        5.78473700       0.75370100       1.58609800
C        7.05159300       0.43899500       2.12656200
C        7.69865800      -0.71573000       1.80811600
C        8.92969000      -1.01863800       2.33500700
N        9.50498400      -0.13474900       3.19454900
C        8.87382800       1.01393500       3.51854800
O        9.43888300       1.93578100       4.39490100
C       10.69045600       1.67921100       4.96132700
C        7.63989700       1.32737700       2.99628400
N        5.79425900      -1.28817600       0.36975200
C        5.21512000      -2.17115100      -0.49185400
C        3.97743400      -1.85147600      -1.01250200
Cl       3.24882800      -2.99381800      -2.11535200
C        1.01912300      -1.33757200      -1.34502500
C       -0.21363800      -1.05491400      -1.90104200
C       -1.42963500      -1.82331600      -2.11460800
O       -1.63611400      -3.02491700      -1.80832300
C       -6.62022800       0.85577000       1.30496700
H       -6.43274500       0.89462600      -1.20763600
H       -3.99859500      -2.39710700      -2.90221900
42
Properties=species:S:1:pos:R:3 energy=-0.20248344861790707 pbc="T T T"
C       -8.22895400       0.40222000       3.17202700
O       -8.39058900      -0.72417000       2.35729600
C       -7.75984300      -0.83366300       1.14795600
C       -7.95590800      -1.97408200       0.37975700
C       -7.35635700      -2.15804200      -0.84758300
F       -7.59802900      -3.29881700      -1.53644500
C       -6.53253900      -1.15238000      -1.30809900
C       -6.30043800       0.00095600      -0.59031300
C       -5.40349300       1.09297000      -1.09445400
C       -6.22890500       2.27010500      -1.58125300
O       -7.02999300       2.71448100      -0.53105200
N       -4.57021600       1.48538900       0.01020300
C       -3.17578100       1.26976700      -0.05434700
O       -2.61450700       0.74497900      -1.04091400
C       -2.33861600       1.68513800       1.10175000
C       -2.82011700       1.02243800       2.37784900
N       -0.92939900       1.38351800       0.85235800
C        0.10741700       2.36201700       0.78788300
C        1.35241800       1.62090700       0.52057100
C        2.68101800       2.03780200       0.35503800
C        3.63911500       1.09714400       0.11260200
C        3.37987100      -0.24657000       0.01974900
C        4.46743500      -1.19300400      -0.24344300
C        4.20895200      -2.55834500      -0.33862200
C        5.26628800      -3.40629500      -0.58736600
N        6.51444400      -2.93402500      -0.73487200
C        6.75964800      -1.61477100      -0.64219700
N        8.10480900      -1.10878900      -0.80146800
C        8.27130100       0.32471500      -0.68518900
C        9.76612700       0.59517200      -0.89117100
C       10.48258300      -0.42026400       0.00667400
O       10.13583400      -0.28363900       1.32847900
C        8.78800700      -0.38259100       1.58447400
C        7.99895900       0.66198000       0.78662800
N        5.73286600      -0.79504400      -0.40100900
C        2.07448200      -0.63726300       0.18426600
C        1.05965900       0.28858900       0.43406500
C       -0.36889900       0.09751200       0.63757300
O       -1.01927400      -0.99995100       0.63003700
C       -6.91984800       0.14207400       0.63001100
H       -4.79253900       0.65169100      -1.88337600
H       -2.45699100       2.77014200       1.22777600
38
Properties=species:S:1:pos:R:3 energy=1.791759469228055 pbc="T T T"
C        6.34473200      -0.14745000      -1.52365100
C        5.52622600       1.01575600      -1.05214900
C        5.49601600       2.14650500      -2.03781200
O        6.11583500       1.48598100       0.12686200
C        4.10467200       0.59168900      -0.78314200
C        3.72917900      -0.68862000      -1.10467500
C        2.42658900      -1.13077300      -0.87831900
F        2.05648200      -2.39537300      -1.19063400
C        1.48121800      -0.27457200      -0.32443800
C        1.85653600       1.00137600      -0.00008700
C        3.17537300       1.44128900      -0.22940400
C        0.69924400       1.60754000       0.61524500
O        0.58033000       2.76627800       1.06174300
N       -0.39204900       0.65234300       0.66239200
C       -1.58760700       0.80730600       1.47487900
C       -2.38732100       1.98530500       1.21601200
C       -2.27358000       2.90136000       0.21031700
C       -3.06048300       4.04179600       0.11092800
C       -4.02631300       4.28697900       1.08002000
Cl      -5.06211300       5.71497300       1.06081200
C       -4.12889900       3.35609700       2.08259500
N       -3.35466500       2.25995600       2.15388000
C        0.00275800      -0.47811700      -0.07617500
O       -0.02521800      -1.63404100       0.78217100
C       -1.36522000      -1.93070300       1.04308300
C       -1.46340600      -3.07552600       2.01235200
C       -0.84702400      -2.81163600       3.32322900
N       -0.21321600      -1.58719800       3.59568200
O       -0.89478100      -3.70687400       4.19698700
C       -0.89537800      -4.39712400       1.38838700
C       -2.35412800      -4.23728100       1.81893300
C       -0.62419800      -0.82868200      -1.34553700
C       -1.58650400      -1.80900700      -1.42622900
C       -2.11914600      -2.22095500      -2.63084000
C       -1.68044600      -1.63511700      -3.78606600
Cl      -2.34790700      -2.18921200      -5.33730400
C       -0.70417600      -0.63188700      -3.75080900
C       -0.20141400      -0.25238200      -2.53923800
38
Properties=species:S:1:pos:R:3 energy=0.04879016416943204 pbc="T T T"
C       -3.21191000       4.89960500      -0.80604900
C       -1.84787900       4.61948100      -1.43444500
C       -0.83514700       5.50719100      -0.71492600
O       -1.86874400       4.94887400      -2.77449400
C       -1.52718100       3.19377400      -1.19028400
C       -2.16634900       2.14802700      -1.81558600
C       -1.84336500       0.80564000      -1.53973800
F       -2.54722400      -0.14730200      -2.21735900
C       -0.86054700       0.51722400      -0.62260300
C       -0.20074100       1.54288600       0.01295200
C       -0.54965600       2.85325900      -0.28222500
C        0.90701100       1.01460200       0.81300800
O        1.69087000       1.69709100       1.52385100
N        0.87773200      -0.38505800       0.59845800
C        1.97479200      -1.22296200       1.03962900
C        3.26638700      -0.83298900       0.43082100
C        3.69531900      -1.24773200      -0.78845900
C        4.95038800      -0.78090100      -1.21409700
C        5.70409100       0.05285200      -0.43397300
C        6.99309000       0.58041800      -0.78100400
N        8.03608000       1.02432400      -1.04163900
C        5.21048700       0.43970000       0.80283300
N        4.03570300       0.00042600       1.19470800
C       -0.38054800      -0.71177600       0.01647500
O       -0.48605700      -1.87970000      -0.66483500
C       -1.80822100      -2.17444300      -0.85769700
C       -2.05934800      -3.47380200      -1.57088800
C       -1.48497000      -4.70945500      -0.84489600
O       -2.11998900      -4.75145200       0.37930800
C       -3.44047700      -3.68599400      -2.09450100
C       -2.28199700      -3.60966400      -3.00248400
C       -1.27247800      -0.84060300       1.29570000
C       -0.98385900      -0.03861000       2.37452500
C       -1.71523600      -0.06841100       3.53428600
C       -2.77941600      -0.93301800       3.61589400
Cl      -3.66683700      -0.92124900       5.13057600
C       -3.08478300      -1.73744700       2.55697800
C       -2.31899000      -1.69280800       1.37217900
43
Properties=species:S:1:pos:R:3 energy=-1.149800325437543 pbc="T T T"
C        0.80501900      -1.10340600      -6.18673000
O        1.54230800       0.07364000      -5.92195000
C        2.48467200       0.20210700      -4.92561400
C        3.10173800       1.44407800      -4.82638800
C        4.04907200       1.65859100      -3.86543800
F        4.67057400       2.85773100      -3.74049300
C        4.39145900       0.64997800      -2.99965900
C        3.78480800      -0.57678800      -3.09489400
C        4.17019900      -1.64674800      -2.14489600
C        4.81290300      -1.04662600      -0.90211100
O        5.10705600      -1.99787700       0.04333100
N        2.95280200      -2.28777800      -1.68606800
C        2.84493900      -3.69046700      -1.86491300
O        3.79302100      -4.30420200      -2.40392400
C        1.65464800      -4.43398500      -1.43510800
C        2.02948500      -5.50637500      -0.43501000
N        0.70576100      -3.50392200      -0.86212200
C       -0.60586300      -3.24337500      -1.40778800
C       -1.22625900      -2.23557000      -0.51152800
C       -2.47705300      -1.63820500      -0.57743700
C       -2.85323900      -0.71470600       0.37244800
C       -2.01185100      -0.34758700       1.41932900
C       -2.47655800       0.63610800       2.38795900
N       -3.09797500       1.75603200       1.98103900
C       -3.55357200       2.70533000       2.79815900
N       -4.20570300       3.86193100       2.28002700
C       -4.70082100       4.89149700       3.11929500
C       -5.34843900       6.03939400       2.69963500
N       -5.63630900       6.72394700       3.82232000
N       -5.21666900       6.08493900       4.87846200
C       -5.34659100       6.50832700       6.25189200
N       -4.64285000       4.96242600       4.45865500
N       -3.37993900       2.53221800       4.12663000
C       -2.76343400       1.43318300       4.63997700
C       -2.31103700       0.48160600       3.74763200
Cl      -1.50846200      -0.96212500       4.32258800
C       -0.77823500      -0.96072900       1.45280600
C       -0.37406000      -1.89442800       0.50867900
C        0.83088300      -2.68545700       0.29023500
O        1.85667700      -2.66235900       1.01292600
C        2.83499800      -0.80737100      -4.05058200
H        4.87498100      -2.35279300      -2.60911800
H        1.21691700      -4.90018300      -2.33947900
43
Properties=species:S:1:pos:R:3 energy=-1.5292413704398238 pbc="T T T"
C        9.85623300       0.63794800      -1.56317200
O        8.75474300       1.14893700      -0.84624600
C        7.96101100       0.29797900      -0.12190700
C        8.23111600      -1.04968800      -0.08944300
C        7.47445700      -1.95858400       0.61771100
F        7.75269200      -3.28213400       0.64012900
C        6.38694100      -1.50875600       1.33486000
C        6.09517100      -0.17889900       1.32124500
C        4.92497500       0.39416300       2.07775000
C        5.53106100       1.16088900       3.25137900
O        6.14921900       0.25940700       4.11128000
N        4.27322000       1.31272700       1.16473500
C        2.91158900       1.22519200       0.80126100
O        2.23211500       0.29426400       1.30258500
C        2.29710800       2.18574400      -0.13227400
C        2.95617000       2.14922700      -1.50391300
N        0.88559000       1.89498900      -0.35499400
C       -0.15630000       2.84836800      -0.11214500
C       -1.40013500       2.16679200      -0.45669200
C       -2.74505600       2.58245800      -0.42735600
C       -3.71473800       1.69456000      -0.82028200
C       -3.46465400       0.40437600      -1.24863800
C       -4.54683800      -0.48685600      -1.65238000
N       -5.69484100      -0.64516500      -0.97589500
C       -6.66275200      -1.50180200      -1.42051100
N       -7.85623700      -1.61290600      -0.64215500
C       -8.01406400      -0.85619900       0.54346900
C       -7.07088000       0.03755900       1.05952200
C       -7.57402100       0.58206400       2.21764400
N       -8.79029400       0.02235500       2.38423400
N       -9.03863300      -0.82088100       1.39513000
C      -10.24793800      -1.58376900       1.27110500
N       -6.51965700      -2.22401800      -2.54618100
C       -5.38193700      -2.08385000      -3.24007600
C       -4.39630300      -1.22407900      -2.80493500
Cl      -2.90131100      -1.05230400      -3.73415500
C       -2.14420600       0.01346600      -1.27144700
C       -1.12441800       0.89690600      -0.87576800
C        0.31556100       0.68864400      -0.82461200
O        0.95294400      -0.34618100      -1.13064500
C        6.86413000       0.71580500       0.60753100
H        4.25860200      -0.37828300       2.46110600
H        2.38056500       3.21318800       0.23314800
42
Properties=species:S:1:pos:R:3 energy=-2.4849466505880216 pbc="T T T"
C       -7.68757900      -3.07946600      -2.45830000
O       -8.05708800      -2.93065500      -1.11566100
C       -7.69899500      -1.84981600      -0.32392400
C       -8.14551300      -1.85527600       0.98198600
C       -7.83724000      -0.82016100       1.84235500
F       -8.28476700      -0.83346900       3.13783900
C       -7.06735900       0.21957800       1.35094800
C       -6.62508100       0.22594000       0.05907200
C       -5.79065000       1.38346600      -0.42139000
N       -4.81151600       1.64781100       0.59866100
C       -3.42083800       1.58804100       0.40865100
O       -2.96407000       1.28856600      -0.70750700
C       -2.51193700       1.87917100       1.52780500
N       -1.11527000       1.75924900       1.11129600
C       -0.36871200       2.85815900       0.58234500
C        0.96748700       2.32033000       0.29533300
C        2.12189000       2.93422000      -0.23671000
C        3.25041200       2.17515700      -0.39884200
C        3.33026100       0.83779700      -0.07222700
C        4.56788000       0.08551800      -0.27113100
N        5.76923200       0.54750700       0.07424200
C        6.92332000      -0.12757900      -0.09932700
N        8.18214600       0.43897800       0.29984200
C        9.38234600      -0.33969300       0.08468500
C        9.21706600      -1.63443900       0.87774000
C       10.34093500      -2.60009600       0.57093400
O       10.92925800      -2.30946600      -0.66628100
C        9.86111400      -2.07885200      -1.55900000
C        9.46918700      -0.63038700      -1.40328800
N        6.85787700      -1.34845900      -0.65818700
C        5.67497800      -1.86880000      -1.02781700
C        4.50211100      -1.17093300      -0.84609400
Cl       2.94300800      -1.81244600      -1.31326200
C        2.18260000       0.27422100       0.44440400
C        1.00785900       0.99866600       0.63047900
C       -0.28656500       0.61625900       1.14647600
O       -0.66793500      -0.52716800       1.56998000
C       -6.71520800       2.53383900      -0.68190200
C       -7.77215500       2.03027600      -1.67460400
O       -7.44046600       2.89029000       0.47138000
C       -6.93601600      -0.80171500      -0.78072500
H       -5.27600900       1.13311300      -1.35027400
41
Properties=species:S:1:pos:R:3 energy=-3.912023005428146 pbc="T T T"
H       -4.76569900       0.07714800       0.13971300
C       -4.59690100       0.40499800      -0.93764000
H       -4.24783600       1.42470500      -1.00767900
O       -5.82128400       0.30948100      -1.59739700
C       -3.64587000      -0.63587400      -1.52024000
C       -2.24671400      -0.73815900      -0.97695500
H       -1.80236400      -1.57495000      -1.69829300
H       -2.25487400      -1.28669700      -0.04018600
O       -1.44172600       0.35572500      -1.10534300
C       -0.28945400       0.31031500      -0.36142400
C        0.32438300      -1.04450900      -0.27222300
C        0.48060200      -1.86961600      -1.32606600
C        1.01139000      -3.13122900      -1.22653200
C        1.40542800      -3.57075700       0.02494100
Cl       2.07961000      -5.18381500       0.21815500
C        1.26126400      -2.75244000       1.12652300
C        0.72699800      -1.49700000       0.99280500
C       -0.29419200       0.97215700       0.95398500
C       -1.01855200       0.73189200       2.11091600
F       -1.95475400      -0.26601900       2.20233800
C       -0.80114500       1.52674200       3.22895600
C        0.12662500       2.55538300       3.20650100
C        0.30414000       3.34742900       4.46319900
C        0.53726600       2.37298700       5.62204300
C       -0.87593100       4.21456800       4.71014100
O        1.47869900       4.11558800       4.32608900
C        0.85196200       2.80911800       2.06541900
C        0.63992300       2.02553000       0.95888600
C        1.30518600       2.08679400      -0.34300300
O        2.18960100       2.90545600      -0.68358600
N        0.76516400       1.06123600      -1.11795600
C        1.20379900       0.78897600      -2.48710200
C        2.44427200      -0.07507800      -2.41180100
C        3.22757000       0.05285500      -1.26875600
C        4.36873200      -0.69458600      -1.07521000
C        4.74425700      -1.60403700      -2.05257200
Cl       6.18325600      -2.60047600      -1.85969700
C        3.95451300      -1.71441700      -3.17531000
N        2.82633700      -0.95181200      -3.33196400
C       -4.02457900      -1.23048500      -2.84220300
C       -4.35910200      -2.02712700      -1.63147500
39
Properties=species:S:1:pos:R:3 energy=-1.7915594892253888 pbc="T T T"
C       -2.33131900       3.69395400      -0.85619800
C       -3.46031700       3.51061600       0.07348900
C       -4.34412000       4.50109000       0.40825400
C       -5.38166300       4.27382200       1.28301900
C       -5.54770500       3.02262400       1.84404200
C       -4.68074000       2.01404100       1.52845800
C       -4.86020200       0.68203600       2.12761900
C       -5.50667000      -0.29482600       1.16873000
O       -5.68894600      -1.53444100       1.77713200
N       -3.55650300       0.20669700       2.57208400
C       -3.26524600      -0.10704300       3.90907000
O       -4.14392600       0.01468100       4.79440600
C       -1.92583600      -0.58612200       4.31010100
N       -1.09343300      -0.64294300       3.12211200
C       -0.29917900       0.48653700       2.69175800
C        0.39527300       0.04282000       1.46483000
C        1.27945700       0.71526500       0.63795000
C        1.81503500       0.09606700      -0.47275400
C        1.48142500      -1.21293400      -0.78768200
C        2.05758400      -1.84680700      -1.96329800
N        3.36523300      -1.74249500      -2.25243500
C        3.92284500      -2.31639300      -3.32912000
N        5.31637100      -2.13959200      -3.53641800
C        6.12188500      -1.37139000      -2.62967500
C        5.58429700       0.03946800      -2.58853000
C        6.57752800       0.96666400      -1.91741000
O        7.70829800       1.04319800      -2.69923100
C        7.84196500       0.03448900      -3.62049500
C        7.56451400      -1.32176700      -3.01121400
N        3.16793800      -3.04238000      -4.18861300
C        1.85304700      -3.18318100      -3.95324300
C        1.27556100      -2.58223500      -2.82802500
Cl      -0.44129400      -2.74747700      -2.49217800
C        0.59888400      -1.84950900       0.05824300
C        0.04650900      -1.25132500       1.17974700
C       -0.88252300      -1.68284000       2.21186800
O       -1.40406700      -2.82275000       2.25800400
C       -3.65441400       2.25373800       0.65800300
H       -5.50554700       0.72545600       3.04760000
43
Properties=species:S:1:pos:R:3 energy=-0.9589373065956277 pbc="T T T"
C       10.27436800      -2.15576000      -0.50006400
O        9.14771000      -1.68278000      -1.19185700
C        8.46245400      -0.56564900      -0.72036200
C        8.89400500       0.07036900       0.42368300
C        8.25512600       1.17749400       0.93379100
F        8.68100700       1.80203600       2.05941900
C        7.15233300       1.63199300       0.24748900
C        6.69596600       1.02498300      -0.89180600
C        5.48536900       1.59827400      -1.56522600