27
Properties=species:S:1:pos:R:3 energy=-1.3216308477941685 pbc="T T T"
O        2.68093000      -0.62878900      -0.35003400
C        3.57729500       0.20505800      -0.08007100
N        3.15523200       1.56773100       0.07330100
C        1.74085400       1.91506500      -0.07859500
C        1.14283400       1.29034400      -1.28163900
C       -0.32637900       1.72641900      -1.37013200
N       -1.00958500       1.27092100      -0.14680200
C       -0.77580400      -0.15942800       0.02629500
C       -1.53620100      -0.83063800      -1.11120300
C       -3.00119500      -0.50971900      -1.01408800
C       -3.76310400       0.36893400      -1.73405000
N       -5.02969000       0.32035400      -1.27748000
C       -5.13238800      -0.58399100      -0.25725400
C       -6.19535300      -0.98818800       0.52122400
C       -5.99030100      -1.94000100       1.49772300
C       -4.73363100      -2.46218400       1.66896700
C       -3.67262000      -2.03840400       0.86974400
C       -3.86527400      -1.10234200      -0.09305200
C       -0.46711900       2.01517900       0.98579300
C        0.99842500       1.78175000       1.18820600
C        4.97600200      -0.09835400       0.08631500
C        5.77361600       0.77366900       0.80473500
C        7.13257200       0.52507900       0.97734200
C        7.69104500      -0.59974300       0.42578200
C        6.91941200      -1.47333200      -0.28967700
C        5.55954000      -1.21122800      -0.45250100
H       -5.84911300       0.86583500      -1.61450500
26
Properties=species:S:1:pos:R:3 energy=-2.4849466505880216 pbc="T T T"
C       -3.17331900       3.01283100      -0.61130700
O       -2.59136000       1.72760900      -0.65966600
C       -3.25899400       0.69977700       0.02298300
C       -4.44133300       0.92503200       0.71745000
C       -5.09015300      -0.09630400       1.38714200
N       -6.30508900       0.13945300       2.09976800
C       -4.50905300      -1.34647900       1.33286100
Cl      -5.31226600      -2.65709400       2.17098800
C       -3.32032000      -1.57307900       0.63460800
C       -2.68189700      -0.55195900      -0.02854800
C       -1.43437600      -0.74074700      -0.77236300
O       -0.93955100      -1.89357500      -0.79234500
N       -0.78414400       0.29486400      -1.44971300
C        0.46659500       0.14926900      -2.20271900
C        0.96137800      -1.24933700      -1.92047600
C        2.19141000      -1.23263800      -1.03337800
N        1.82852300      -0.34314600       0.08229900
C        2.72006500      -0.51105200       1.21794100
C        4.07378500      -0.14874000       0.75689700
C        4.34456800       1.12754900       0.26635600
C        5.64674600       1.40877200      -0.14094400
C        6.64799900       0.48527900      -0.07489300
C        6.37217000      -0.79674400       0.41932100
C        5.07675700      -1.05796100       0.81822700
C        2.04631300       1.00621300      -0.44607600
C        1.46554600       1.19796100      -1.79441300
29
Properties=species:S:1:pos:R:3 energy=-2.900422093749666 pbc="T T T"
O       -2.40462400       0.38869900       0.59706200
C       -3.39042400      -0.36447600       0.37955800
C       -3.23251500      -1.82793100       0.35255800
C       -1.83104200      -2.27733500       0.59814400
C       -0.90921900      -1.72296900      -0.44502600
N        0.43241800      -2.19274700      -0.15676800
C        0.92460000      -1.58848600       1.06580300
C        0.92409800      -0.09706400       0.99596400
C        1.45918700       0.47980000      -0.27255800
N        2.89140100       0.71576700      -0.23951000
C        3.48080700       1.92047900      -0.30857100
O        2.84283000       3.02341000      -0.41264300
N        4.80746300       1.77604400      -0.25189900
C        5.11243300       0.44938700      -0.14267800
C        6.30005900      -0.24465200      -0.04965900
C        6.28950400      -1.61745200       0.05199700
C        5.06491600      -2.24883400       0.05648500
C        3.87513500      -1.56006900      -0.03618300
C        3.88581800      -0.18205600      -0.13827600
C        1.04446900      -0.31257900      -1.49205600
C        1.27157300      -1.79787700      -1.27200700
C       -4.70900300       0.24908700       0.15204600
C       -4.89192200       1.61532100       0.17196700
C       -6.15406000       2.16434800      -0.04782600
C       -7.24170000       1.36030000      -0.28874300
F       -8.47480300       1.90131300      -0.50314000
C       -7.06918900       0.00282900      -0.31039600
C       -5.81533500      -0.53740800      -0.09176200
H        5.51712400       2.52515400      -0.28290500
34
Properties=species:S:1:pos:R:3 energy=-3.6888794541139363 pbc="T T T"
C        6.88867200       0.25028600       1.69821700
O        7.16627200       0.32702700       0.32014400
C        6.28572500      -0.20083000      -0.62263700
C        5.12766800      -0.80642000      -0.19143400
C        4.26946900      -1.32017100      -1.17284400
C        4.52733000      -1.24722700      -2.50356800
C        3.62152200      -1.80546400      -3.51690700
C        2.57934100      -0.78019000      -3.85959800
N        1.77474100      -0.49276600      -2.73874000
C        0.90023600      -1.50936900      -2.33626700
C        1.01203300      -1.81320900      -0.88163000
C        0.76009700      -0.56804500      -0.10459900
N       -0.49061700      -0.62017200       0.53357300
C       -1.10610900       0.32258700       1.36966400
N       -0.69582500       1.53260100       1.77186900
C       -1.59704500       2.08985000       2.59432600
C       -1.62758400       3.32033200       3.27062100
C       -2.73551600       3.56005600       4.04777600
C       -3.78323500       2.68067700       4.19178000
C       -3.70767600       1.49279000       3.51190000
C       -2.62054900       1.17903200       2.70740700
N       -2.30245300       0.10638300       1.95227600
C       -3.12994000      -1.07344700       1.83508300
C       -4.10035500      -1.05179900       0.73655200
C       -3.74673500      -1.55187700      -0.49852400
C       -4.60387200      -1.57608400      -1.57594000
C       -5.88277800      -1.07271600      -1.40079700
F       -6.76931800      -1.07692400      -2.42821100
C       -6.23786400      -0.57555300      -0.17783300
C       -5.38923400      -0.54731700       0.90012500
C        1.26056200       0.69482900      -0.65178200
C        2.06826200       0.58332300      -1.90696000
C        5.70705800      -0.62818900      -2.89992700
C        6.57771800      -0.11042700      -1.97311700
35
Properties=species:S:1:pos:R:3 energy=-1.6094379124341003 pbc="T T T"
C       -3.63853900      -2.83027300      -1.44826400
C       -3.71007500      -1.41993000      -0.87489000
C       -5.12238600      -1.09333500      -0.45785000
O       -3.33114300      -0.53603600      -1.85775100
C       -2.80990900       0.56149900      -1.16326500
C       -1.42182600       0.78634800      -1.75829600
C       -0.56841600      -0.03394800      -0.82352100
C        0.88849900       0.27008900      -0.90208900
C        1.43848300      -0.26544600      -2.18000200
C        2.87986800       0.16796800      -2.35818200
C        3.63635200      -0.15072800      -1.07478500
C        4.81337500      -0.68264400      -1.16870700
C        5.63019200      -1.03419500      -0.01313000
O        6.77050600      -1.54893400      -0.11943700
C        5.01348300      -0.73868300       1.27397800
C        3.83286100      -0.20409400       1.35136200
C        3.01057000       0.15522600       0.22432400
C        2.88280300       1.69531500       0.25233100
C        1.58974900      -0.41173300       0.26113200
F        1.61905100      -1.76370400       0.11730800
C        0.95613500      -0.06883600       1.58688200
O        1.04190000       1.32508900       1.78743200
C       -0.52301500      -0.39617600       1.58060500
C       -1.16519600       0.42050200       0.51806700
C       -0.99039600       1.89797000       0.68427000
C       -2.61447200       0.09101900       0.25986600
C       -3.51888900       0.77792300       1.21853400
O       -4.35216000       0.16998600       1.86378100
C       -3.37702500       2.24825900       1.37085500
O       -4.30167200       2.71577400       2.30588300
O       -2.81661900      -1.26099200       0.17496700
H       -3.44092700       1.44655500      -1.24194200
H       -0.82069100      -1.09397300      -0.98321700
H        1.01740100       1.36470000      -0.79277000
H        1.50212700      -0.56056100       2.38652200
39
Properties=species:S:1:pos:R:3 energy=-4.245400037142057 pbc="T T T"
C       -6.89161700      -0.24141400      -0.20380600
C       -5.50097800      -0.70996000       0.08264400
C       -4.47550000       0.34756400      -0.17237400
O       -4.91351700       1.45246800      -0.58152900
O       -3.13066100       0.11577400       0.03194200
C       -2.16752000       1.08657600      -0.20084000
C       -2.37773100       2.32227000       0.64658200
O       -1.63786600       3.27447300       0.53057300
S       -3.72641300       2.33907200       1.80807300
C       -3.81948100       3.87573600       2.72728800
F       -4.13513400       4.95618200       1.92731000
C       -1.97844600       1.47596000      -1.64439100
C       -3.09752000       0.98786400      -2.54685600
C       -0.64441500       0.85701100      -2.09845100
C       -0.36972300      -0.18844200      -1.04009700
C        1.09611800      -0.47264800      -0.86888700
C        1.63784700      -1.30213600      -2.00783700
C        3.15656000      -1.28787900      -1.96276800
F        3.60345700      -2.19383200      -2.89620600
C        3.60445200      -1.62914500      -0.56965300
C        4.59274000      -2.44900800      -0.41731000
C        5.11565600      -2.86062400       0.88877400
O        6.07758800      -3.65794700       1.00397500
C        4.43015900      -2.27076000       2.02839700
C        3.44730700      -1.45349900       1.85080400
C        2.91433200      -1.02463700       0.58929800
C        3.25844900       0.48369600       0.47308400
C        1.40166700      -1.18202100       0.42196700
F        1.16622000      -2.52759300       0.22801600
C        0.65770000      -0.71876200       1.60671500
O        1.24479000       0.36867600       2.26207300
C       -0.77883200      -0.34234400       1.33693300
C       -0.78774000       0.60367200       0.19338700
C        0.12804200       1.77580100       0.33148500
H       -1.83958600       2.58858800      -1.71692100
H       -0.98621500      -1.09146300      -1.18942900
H        1.61940600       0.52091800      -0.93174100
H        3.48177900      -0.28258400      -2.28089900
H        0.62462700      -1.54560500       2.36067500
32
Properties=species:S:1:pos:R:3 energy=-2.4849466505880216 pbc="T T T"
O       -3.75897600      -2.80770800      -0.14459700
C       -4.56177700      -1.84504500      -0.15015000
N       -5.83370000      -1.92057500      -0.56792200
C       -6.40517300      -0.70337700      -0.43219800
C       -7.68758500      -0.22076900      -0.70813400
C       -7.93729300       1.09249200      -0.44622500
C       -6.97280600       1.91192600       0.06501800
C       -5.69285800       1.43915500       0.34339700
C       -5.41945400       0.10738500       0.08516400
N       -4.26628800      -0.59993800       0.26388800
C       -3.02290800      -0.09789300       0.80854400
C       -2.07957000       0.49849600      -0.19765500
C       -0.86684100       0.97901900       0.61912100
N       -0.29667300      -0.23444000       1.23790400
C        0.67458800       0.06536200       2.24600100
C        2.08326200      -0.07425900       1.72427000
C        2.14298200       0.69387300       0.39481700
N        3.51582700       0.92935500       0.10712800
C        4.08727400       2.16337500       0.14054300
O        3.44494000       3.20851200       0.41307700
N        5.38051300       2.05160300      -0.15395600
C        5.66788100       0.77155200      -0.37917900
C        6.79674800       0.07021600      -0.70913100
C        6.80389600      -1.30284400      -0.88337900
Cl       8.29664700      -2.13851700      -1.29523100
C        5.60803500      -1.97273200      -0.71066900
C        4.44906000      -1.31066800      -0.37810200
C        4.48826500       0.07474200      -0.21202900
C        1.33272700      -0.01940500      -0.61847100
C        0.34040400      -0.93406100       0.10632700
H       -6.38432800      -2.73193600      -0.94317400
H        6.07318100       2.85710400      -0.20350800
32
Properties=species:S:1:pos:R:3 energy=-2.4849466505880216 pbc="T T T"
C        4.71023200       1.28772900      -2.68506500
O        4.19114400       0.68107300      -1.53304300
C        4.83784900      -0.36394300      -0.87059300
C        6.04851600      -0.86840700      -1.32235900
C        6.69087100      -1.89890900      -0.67276400
N        7.94960500      -2.41252600      -1.15447500
C        6.12374000      -2.44770800       0.45390800
Cl       6.95640200      -3.75490300       1.26187700
C        4.90523700      -1.94099000       0.90972300
C        4.26961600      -0.91149700       0.25556900
C        3.00557400      -0.40902800       0.75730200
O        2.48795900      -0.91469500       1.79338000
N        2.28743500       0.64763500       0.14263300
C        1.04705700       1.17071300       0.60486100
C        0.45071800       0.54969700       1.79936700
C       -0.65812900      -0.40908600       1.38781700
N       -1.66472400       0.43929200       0.71521600
C       -1.93356600       1.54735200       1.58072700
C       -2.96204400       2.50930600       1.09152900
C       -4.32283700       1.92879700       0.86906300
O       -4.24165600       0.90124800      -0.08952700
C       -5.44630100       0.25527800      -0.41524500
C       -6.64406800       0.59865400       0.16053100
C       -7.76434500      -0.09377000      -0.22662500
C       -7.71607000      -1.10299000      -1.15881400
F       -8.81308100      -1.79202400      -1.54807000
C       -6.49212900      -1.43702600      -1.73164600
C       -5.33865200      -0.75776100      -1.36380500
C       -1.15904400       0.89756000      -0.53636800
C        0.09894200       1.63468500      -0.41099600
O       -0.01349900       3.01313500      -0.42829100
C       -0.89075200       3.45311000      -1.39696600
26
Properties=species:S:1:pos:R:3 energy=-0.7657178733947807 pbc="T T T"
C        4.74704200      -0.11539300      -1.61740300
C        5.07056100      -0.38333000      -0.20230800
C        6.33271700      -1.04024200       0.10535100
N        4.03223200      -0.34412100       0.73404100
C        3.37008400       0.92325900       0.88761500
C        2.44153100       1.10367000      -0.32198500
C        1.52135800      -0.02080800      -0.35796000
N        0.16068300       0.20143900      -0.06659600
C       -0.84464900      -0.77075400      -0.17200600
O       -0.54413400      -1.90870600      -0.57785200
C       -2.26365800      -0.45728000       0.19480900
C       -3.12935600      -1.62803900      -0.04056800
C       -3.24793800      -2.58347800       0.94502900
C       -4.03386900      -3.69893600       0.81505200
C       -4.75522700      -3.91660900      -0.33176100
C       -4.65469900      -2.96855600      -1.34256200
C       -3.85237300      -1.84421100      -1.19227200
C       -0.24370100       1.49779100       0.36597300
C       -0.34706200       1.86975100       1.68694800
C       -0.76364500       3.15902300       1.94362700
C       -1.07131700       4.06219900       0.95035600
Cl      -1.60488600       5.70143300       1.33302000
C       -0.95459800       3.65150300      -0.35842400
C       -0.54260400       2.37352700      -0.68238000
C        2.03558300      -1.39285900      -0.25550300
C        3.14192600      -1.47027200       0.76260900
36
Properties=species:S:1:pos:R:3 energy=-1.6966311241364778 pbc="T T T"
C        5.52184000      -1.21763200       2.32250400
C        5.14808400      -2.52903800       1.64736200
C        4.52417400      -2.17448500       0.31563300
C        3.29105600      -1.31966400       0.49091200
O        3.66346000      -0.14655800       1.14707200
C        2.68720000       0.78320500       0.79880800
C        1.41213000       0.56121200       1.61571900
C        0.51625600      -0.20881700       0.65764300
C       -0.92716100       0.01236600       0.91235200
C       -1.43605900      -0.77835200       2.10398000
C       -2.86374400      -0.40368300       2.44218500
C       -3.70279600      -0.27811800       1.23204200
C       -4.90705700      -0.80016700       1.21303900
C       -5.75692600      -0.68212900       0.00839700
O       -6.91405200      -1.19247000       0.01171800
C       -5.20484500       0.02445700      -1.12735900
C       -4.00803800       0.53748900      -1.09372600
C       -3.14773000       0.44422800       0.06334500
C       -2.83436200       1.85901700       0.57803400
C       -1.81896300      -0.26655400      -0.24409400
C       -1.32874600       0.21106400      -1.56137600
O       -1.50462300       1.59113500      -1.62819100
C        0.16253000      -0.08641000      -1.75668800
C        0.86851400       0.55346800      -0.62848200
C        0.52996700       1.99436100      -0.41450400
C        2.36180600       0.38053800      -0.62455300
C        3.04289600       1.28522700      -1.57635100
O        2.78048900       2.47405900      -1.57171500
C        4.03972000       0.80060400      -2.54369700
O        4.26692000      -0.56161000      -2.48403300
O        2.76128200      -0.92733900      -0.73143600
H        3.03334100       1.82074900       0.84413000
H        0.83012500      -1.25003500       0.61964800
H       -1.05931600       1.09379100       1.19594400
H       -2.09124500      -1.35029000      -0.34779000
H       -1.93612600      -0.25361800      -2.35806400
20
Properties=species:S:1:pos:R:3 energy=-0.18632957819149348 pbc="T T T"
C        6.35097100       0.42595900       1.38635300
C        4.90118900       0.80001600       1.34866000
C        4.19325600       0.09596400       0.22107500
O        4.84427100      -0.67588200      -0.51726800
N        2.81051300       0.29032800      -0.01814300
C        2.14751400      -0.41143600      -1.12719100
C        0.67971400      -0.04450900      -1.18035800
C        0.06799200      -0.45629000       0.13421700
C        0.25134000      -1.94672900       0.29475100
C       -0.85721000      -2.31117300       1.28440200
C       -1.93554400      -1.33619400       0.87686700
C       -3.30979500      -1.42029800       1.09745200
C       -4.16438800      -0.43966500       0.65034900
C       -3.60292800       0.62507000      -0.02260800
C       -2.24722600       0.70757300      -0.23980800
C       -1.37506800      -0.27576600       0.20677200
C       -1.90276600       1.94822400      -0.98499400
C       -3.25761400       2.59837900      -1.16423700
O       -4.20953800       1.74409800      -0.57935500
H        0.61531800       0.08233000       0.96084900
35
Properties=species:S:1:pos:R:3 energy=-3.101092789211817 pbc="T T T"
O       -3.72242400       2.40255200      -1.70613000
C       -4.30871300       1.38667800      -1.23879300
N       -5.63304000       1.32419200      -1.02908100
C       -5.96450300       0.10182600      -0.51909900
C       -7.16382700      -0.45921100      -0.13770400
C       -7.15240700      -1.74564200       0.34849300
C       -5.97724700      -2.45364600       0.45197400
C       -4.80060300      -1.85578200       0.05999000
C       -4.75045700      -0.56056700      -0.43837100
N       -3.75644400       0.22826800      -0.87705100
C       -2.35902000      -0.15055900      -0.93068400
C       -1.44234500       1.03856900      -0.92985500
C       -0.26374700       0.89962600      -0.03821400
N       -0.48529900       0.40124700       1.24981600
C        0.69959100      -0.14465900       1.84406400
C        1.18240200      -1.38261000       1.17828200
C        1.66111200      -1.33646100      -0.19817100
C        2.85067800      -0.60616000      -0.57179500
C        2.96787400       0.81204200      -0.34744100
C        2.96289100       1.34226000       0.91850300
C        3.07823000       2.70665700       1.06311000
C        3.19854000       3.55739200      -0.01677200
F        3.30537400       4.88686600       0.25989100
C        3.20495100       3.04249700      -1.28256500
C        3.08937000       1.67612000      -1.43078900
C        4.12327000      -1.32249100      -0.40878700
C        4.39671500      -1.84213800       0.85476000
C        5.57004800      -2.53156700       1.10947600
C        6.51533300      -2.72718100       0.10986700
F        7.66521900      -3.40250800       0.35723300
C        6.21895500      -2.20234600      -1.13029600
C        5.04432200      -1.51106200      -1.38990700
C       -1.55281800      -0.53774600       1.41993600
C       -2.08484600      -1.12637500       0.15871500
H       -6.31713600       2.09192200      -1.22342700
18
Properties=species:S:1:pos:R:3 energy=-1.098712293668443 pbc="T T T"
C       -0.06940600       1.61148200       3.19445300
O       -1.17886000       0.80695100       2.94522500
C       -1.38449600       0.25103600       1.68618500
C       -2.47414500      -0.53836200       1.42341300
C       -2.63234700      -1.05938800       0.16563800
C       -1.73374300      -0.81917400      -0.85028700
N       -1.63076200      -1.16569500      -2.13857800
C       -0.52809100      -0.62975100      -2.67963400
C        0.13256900       0.11635700      -1.67868500
C        1.40766400       0.82595100      -1.86289700
C        2.56438200       0.00869000      -1.49343700
N        2.62871700      -0.38816600      -0.14683500
C        2.73927400       0.51686700       0.91775800
C        2.79811400      -0.02688200       2.29937000
O        2.79016200       1.76700000       0.72186900
C       -0.63335000      -0.01318300      -0.55285600
C       -0.48406000       0.50181200       0.70251400
H       -2.31162200      -1.76554500      -2.65321600
37
Properties=species:S:1:pos:R:3 energy=-1.3216308477941685 pbc="T T T"
C       -5.35752000       1.08923200       1.17721500
C       -3.91711000       0.61288000       1.35216600
C       -3.45966800       1.09658800       2.72824900
O       -3.97615100      -0.76418100       1.37572500
C       -3.01548600      -1.21978100       0.48887200
C       -1.70293000      -1.49838300       1.23231100
C       -0.82113800      -0.35563800       0.81931200
C        0.64494400      -0.73134200       0.76379800
C        1.14840300      -0.65333900       2.19460300
C        2.63874500      -0.85094500       2.30499300
F        3.01398200      -0.41626000       3.57208000
C        3.36903800      -0.09153300       1.26368000
C        4.44418900       0.60042600       1.56782700
C        5.19906100       1.36359500       0.58659300
O        6.21891300       2.02188700       0.86657800
C        4.72127200       1.34267600      -0.78287600
C        3.64482500       0.64094100      -1.04935400
C        2.84341700      -0.14398600      -0.11815700
C        2.91972100      -1.60166400      -0.54888400
C        1.39469900       0.30318900      -0.04393900
C        0.87299200       0.50443000      -1.42744000
O        0.96925500      -0.69971100      -2.12609700
C       -0.59709900       0.93859800      -1.30957300
C       -1.26716400      -0.17233000      -0.60837400
C       -1.06103300      -1.52161800      -1.30315400
C       -2.76635000      -0.03302600      -0.40750900
C       -3.44119300      -0.12474000      -1.72624600
O       -3.31371000      -1.14972800      -2.36264900
C       -4.23599000       0.98907200      -2.24779900
O       -4.18443300       2.16137200      -1.54036800
O       -3.10337300       1.04230400       0.34936200
H       -3.35139800      -2.11802900      -0.07316200
H       -0.97894300       0.53298000       1.44199800
H        0.76802800      -1.70991600       0.30835900
H        2.86907700      -1.92062800       2.25512300
H        1.39239100       1.29138700       0.46771300
H        1.47773400       1.24522000      -1.93979600
29
Properties=species:S:1:pos:R:3 energy=-2.4849466505880216 pbc="T T T"
C       -2.38738800      -0.65649300      -3.63993700
N       -2.49272700      -0.63468200      -2.21699500
C       -3.77056400      -0.43671500      -1.59275200
N       -4.46886700       0.64256200      -1.40177500
C       -5.61851300       0.60894200      -0.77466000
C       -6.45864700       1.71461600      -0.50354800
C       -7.61967600       1.51862400       0.16556900
C       -8.08697100       0.30197800       0.62964200
C       -7.25892000      -0.77187000       0.35885800
C       -6.05260200      -0.60810400      -0.32993200
S       -4.78333600      -1.63302700      -0.84094500
C       -1.33186700      -0.81852800      -1.38492000
C       -1.77362900      -0.83037200       0.07740100
C       -0.63240500      -1.18993100       0.95448700
N        0.35309500      -0.12188000       0.85026300
C        1.61977900      -0.71834000       0.60018000
C        2.70282400       0.28541200       0.56786800
O        2.51818500       1.23166600      -0.39484800
C        3.10870100       0.80127700       1.89968600
O        4.34972200       1.45958400       1.86929600
C        5.48202600       0.76598700       1.46890600
C        6.69661400       1.37444900       1.43525200
C        7.82977800       0.69397600       1.04392000
C        7.74325700      -0.62308300       0.67740500
F        8.82520700      -1.32969600       0.28646600
C        6.49899800      -1.25652500       0.70763800
C        5.37118800      -0.55081600       1.10570700
C       -0.03892100       0.87014900      -0.12556200
C       -0.32434000       0.30153500      -1.49267300
32
Properties=species:S:1:pos:R:3 energy=0.23665190133900194 pbc="T T T"
C       -6.70738700       3.04831100      -1.30020000
C       -6.69806800       2.44017000       0.12806700
O       -5.45131300       1.98765400       0.37863800
C       -4.70439600       0.97453500      -0.12395800
N       -4.99684700       0.01601300      -0.98953800
C       -4.16941300      -0.97592400      -1.38536000
N       -4.63265800      -1.99855500      -2.31646600
N       -2.91874900      -1.03103400      -0.87890400
C       -2.48792300      -0.12554800       0.00421100
C       -3.38302600       0.85493400       0.35338000
N       -2.77348200       1.69519700       1.24434600
C       -1.50830800       1.22858200       1.43572100
N       -1.35528500       0.08576200       0.65808800
C       -0.11196600      -0.62847300       0.67388300
O        0.87295400       0.25647000       1.23855800
C        2.02679000      -0.40618700       0.95686600
C        3.26931300       0.36986000       1.28812300
O        4.28351900      -0.59833000       1.14322900
P        4.23844000      -0.96023800      -0.53775400
O        5.28124300      -2.09256300      -0.79340600
O        4.97054500       0.42943900      -1.29505000
C        5.61824600       0.96024600      -0.09472800
C        7.09680100       1.12624600      -0.47177400
C        5.10569300       2.46789400       0.01543400
O        2.79531900      -1.38385600      -1.12128900
C        1.83783000      -0.59154600      -0.56129500
C        0.43226600      -1.22420900      -0.52247600
C       -0.22874600      -0.96129500      -1.83924100
F        0.67594500      -2.57886100      -0.31911100
H       -0.16456700      -1.42815200       1.51084700
H        1.97221900      -1.39610500       1.40814900
H        1.81501000       0.43956000      -0.96381900
24
Properties=species:S:1:pos:R:3 energy=1.0986122886681098 pbc="T T T"
C        6.12074800       0.17369300      -2.50448200
C        5.94134900       1.41077400      -1.68407900
S        5.40602800       1.02630800      -0.02041600
O        6.46933000       0.13665500       0.57001900
O        5.30396100       2.27780300       0.80233000
C        3.87633400       0.17652500      -0.06374900
C        3.84988700      -1.20814900      -0.13528300
C        2.64237700      -1.87776800      -0.16943900
C        1.43119900      -1.21962700      -0.13499100
O        0.19169200      -1.64941100      -0.15674900
C       -0.59335700      -0.59969300      -0.10222900
C       -2.05513300      -0.58364900      -0.10087800
C       -2.72642700      -1.78842600      -0.16286800
C       -4.10169800      -1.79718600      -0.16287600
C       -4.83025400      -0.61621300      -0.10166100
C       -6.21992300      -0.64724800      -0.10282900
C       -6.89873000       0.55164200      -0.04072200
C       -6.25636000       1.77114700       0.02203600
C       -4.88314700       1.76836700       0.02146500
C       -4.15214900       0.58068600      -0.04007900
C       -2.77568300       0.58714800      -0.04019100
N        0.14993200       0.52490600      -0.04439000
C        1.44945700       0.17273800      -0.06305600
C        2.66056600       0.82897900      -0.02959200
29
Properties=species:S:1:pos:R:3 energy=0.7807000775678068 pbc="T T T"
C       -6.53350600      -0.60089400      -1.50720000
C       -5.59182300      -0.08902400      -0.46413400
C       -5.23410700       1.36630100      -0.65306700
O       -4.44757900      -0.87687200      -0.34992700
P       -3.39919200      -0.28302800       0.83096900
O       -4.18618700       0.69894100       1.70428600
O       -2.86395400      -1.51075800       1.80320800
C       -1.55489200      -1.87991000       1.62767200
C       -0.73376100      -0.67207100       1.36369900
O        0.61610400      -0.87781800       1.26896400
C        1.03341000       0.37069100       0.74883900
N        2.43081400       0.41094400       0.47796700
C        3.03002000       1.63806400       0.49727800
C        4.36585900       1.76459300       0.24820300
C        5.11073700       0.63980000      -0.02451600
O        6.33932600       0.76531200      -0.25256600
N        4.48270900      -0.53869400      -0.03270400
C        3.16577000      -0.67875100       0.21113200
O        2.59145900      -1.80303000       0.19843300
C        0.16564600       0.46252700      -0.48214000