23
Properties=species:S:1:pos:R:3 energy=-0.3263809763382235 pbc="T T T"
C       -4.61618800      -0.43559700       0.41899100
C       -3.70675100       0.60808900      -0.08627200
C       -4.30941200       1.77936500      -0.54024300
C       -3.51514800       2.78630100      -1.02190400
C       -2.16428500       2.62907400      -1.04939800
C       -1.59413900       1.46418500      -0.59586600
C       -2.35261000       0.39372000      -0.08979800
C       -1.70280400      -0.81362400       0.37612400
N       -2.17687500      -1.93142000       0.88226400
N       -1.19222200      -2.79898000       1.18110400
C       -0.01093500      -2.20541100       0.84774100
N        1.27484800      -2.62535400       0.93617500
C        2.25621900      -1.81536200       0.52509700
C        1.95900200      -0.56372400       0.01589500
C        3.06727200       0.29490200      -0.42459800
C        2.80250000       1.54493000      -0.93543100
C        3.82971900       2.38293200      -1.36156400
C        5.14405900       1.98037400      -1.28242600
C        5.41332300       0.73159400      -0.77243600
C        4.37864300      -0.10892800      -0.34471600
N        0.68733300      -0.16259000      -0.06555900
C       -0.31061900      -0.96352700       0.34284000
H       -3.16092900      -2.17094700       1.05203800
22
Properties=species:S:1:pos:R:3 energy=-2.0830066078443323 pbc="T T T"
C        7.81818700       0.70372600       0.70685300
O        6.72128800       0.73859200      -0.18374400
C        5.51628000       0.10600300       0.08677000
C        4.50703500       0.20055800      -0.84897200
C        3.27296500      -0.40830100      -0.64450600
C        3.02080300      -1.12772000       0.50491700
C        1.71119400      -1.79676700       0.76456900
N        0.80750300      -1.56746700      -0.34320200
C        0.59888900      -0.11882900      -0.49118000
C       -0.86123700      -0.39064300      -0.77802000
O       -1.68409800       0.56056800      -0.18199600
C       -3.07559900       0.54670300      -0.28715900
C       -3.75494400      -0.41832100      -0.99590900
C       -5.13273900      -0.40233200      -1.07964900
C       -5.88857700       0.57320200      -0.46234400
F       -7.25018000       0.58392600      -0.54858000
C       -5.21455900       1.54390500       0.24993700
C       -5.99719800       2.62276000       0.93628200
C       -3.82059500       1.52549300       0.33312800
C       -0.60714200      -1.64977000       0.04470600
C        4.03819400      -1.21433500       1.43200700
C        5.27453000      -0.61094800       1.23943200
32
Properties=species:S:1:pos:R:3 energy=0.0 pbc="T T T"
O        6.84818700       2.31751200      -0.86544100
C        5.65672700       2.14209100      -1.17233000
O        5.16204200       2.62404800      -2.37492900
C        4.75205400       1.42890500      -0.28133400
C        5.21890000       0.93580800       0.92771400
C        4.36631800       0.26549600       1.76391700
C        3.04960200       0.05972100       1.44789300
C        2.18733500      -0.67723800       2.40803400
N        0.85201500      -0.76601700       1.85459500
C        0.24306100       0.50082900       1.60788700
C       -0.32380800       0.47455900       0.20378700
C       -1.74410800       0.97076600       0.25062100
O       -1.70614200       2.30242300       0.76398500
C       -2.91532400       2.97266300       0.89868300
C       -4.12074900       2.39296300       0.55549000
C       -5.31771700       3.08589900       0.70010300
C       -5.33551500       4.37474300       1.19146500
C       -4.13207400       4.95333700       1.53403400
C       -2.94739400       4.26209000       1.38883200
C       -0.26749700      -0.97085900      -0.14176200
C        0.92063800      -1.47533400       0.59544200
C       -1.54517800      -1.75679300       0.01907600
N       -1.26854800      -2.38594500      -1.24724000
C       -1.73673200      -3.57909300      -1.85784300
C       -1.30706600      -3.96522900      -3.10365900
C       -1.78344700      -5.12298000      -3.65623700
C       -2.69831500      -5.93338900      -2.99440100
C       -3.11213900      -5.52042200      -1.74444500
C       -2.63598800      -4.36322800      -1.19212900
C       -0.35292500      -1.32156100      -1.60073500
C        2.56513000       0.54639900       0.24171400
C        3.42865800       1.22783600      -0.61010700
25
Properties=species:S:1:pos:R:3 energy=-1.4225302095739358 pbc="T T T"
C        7.49736500       0.59992600      -1.32821900
O        6.49746100      -0.41354500      -1.34663800
C        5.41230100      -0.22376000      -0.49312800
C        4.44078500      -1.20448100      -0.50832900
C        3.34248500      -1.07652700       0.31208100
C        3.21357100       0.01084700       1.13468600
C        1.98563300       0.06464400       1.99144200
N        0.97757000       0.75976500       1.22415200
C       -0.23997900       0.85293900       1.98383200
C       -1.16745300      -0.17531800       1.37077900
C       -0.80506800      -0.04193400      -0.10981900
C       -1.22815000      -1.23257600      -0.89993200
O       -2.48121100      -1.74225600      -0.41476700
C       -3.70528200      -1.04719500      -0.34859100
C       -4.76475000      -1.91090700      -0.15979200
C       -6.02635000      -1.36839400      -0.07597900
C       -6.25930300      -0.01871200      -0.17265700
C       -5.20121400       0.86621800      -0.36321300
C       -3.94353700       0.32206500      -0.44646500
C       -2.89095200       1.31916200      -0.64651500
O       -3.30764700       2.48682800      -0.88462300
N       -1.47558600       1.15924700      -0.61074000
C        0.68249100       0.15098300      -0.03430000
C        4.17187000       1.00436100       1.16738700
C        5.27495000       0.85861900       0.33173600
22
Properties=species:S:1:pos:R:3 energy=-2.126809230502725 pbc="T T T"
C        5.72666800      -1.45501900       2.85785300
O        5.91988800      -0.48710200       1.84801000
C        4.92184200      -0.34907400       0.88702500
C        3.77696100      -1.11937100       0.90120400
C        2.80097900      -0.96577300      -0.06091400
C        2.91837600      -0.04649500      -1.07269100
C        1.85420100       0.12004200      -2.12062900
N        0.94020400       1.13434400      -1.57751000
C       -0.16994000       1.43185200      -2.46553800
C       -1.07521600       1.38206700      -1.27244700
O       -2.27714600       0.66063400      -1.43443100
C       -3.14551100       0.58106100      -0.37473200
C       -2.83976300       1.19329400       0.80894300
C       -3.66633700       1.15307900       1.91231600
C       -4.84956700       0.46679600       1.81641200
F       -5.66393800       0.42181200       2.88921100
C       -5.18031700      -0.16297000       0.62263600
C       -4.32656900      -0.10758200      -0.48010900
C       -4.74075600      -0.80499900      -1.73196100
C       -0.00983200       0.46611500      -0.70525900
C        4.05591400       0.73309100      -1.10389200
C        5.02986000       0.57957900      -0.14349800
23
Properties=species:S:1:pos:R:3 energy=0.0 pbc="T T T"
C        4.73107000       4.04765200       1.34220100
O        4.79868200       3.01042900       2.26268800
C        3.97186600       1.95294900       1.97144700
C        4.29351200       1.32706400       0.62191900
N        3.39716400       0.22409100       0.36744600
C        1.95071700       0.41519800       0.30244600
O        1.59167000       1.57016600       0.48052700
C        1.13058800      -0.76484600       0.03966200
N        1.64830100      -2.02833600      -0.14664100
C        0.61804600      -2.85510900      -0.36178100
S        0.16229700      -4.47080600      -0.67613900
C       -1.52875300      -4.24855000      -0.75232700
C       -1.62562700      -2.91927700      -0.52582800
N       -0.54500000      -2.21339700      -0.32845800
C       -0.22384200      -0.89063600      -0.07463400
C       -1.20460200       0.19060700       0.04819100
C       -0.94647900       1.50256100       0.29585700
C       -1.88859500       2.47595500       0.40240100
C       -3.21861700       2.16757600       0.25773600
C       -3.54654900       0.85479200       0.00516900
C       -4.94241200       0.51870000      -0.14884100
N       -6.05546500       0.23856800      -0.28294800
C       -2.56797000      -0.10535100      -0.09656900
32
Properties=species:S:1:pos:R:3 energy=-2.981597762619088 pbc="T T T"
O        4.84369900      -2.14997000      -0.46719600
C        4.02913500      -1.16972600      -0.36855300
C        2.62579700      -1.53316900      -0.30656400
C        2.25313800      -2.88130400      -0.36934200
C        0.94684100      -3.30630000      -0.31169100
C       -0.07756400      -2.39519500      -0.18612600
C       -1.48219500      -2.81469600      -0.12168700
N       -1.89434600      -4.09199800      -0.17712300
C       -3.25515800      -4.12977200      -0.09099100
C       -3.66126800      -2.80514200       0.02074500
C       -4.91960100      -2.20718300       0.14113100
N       -4.98284900      -0.86830000       0.23145500
C       -3.90782900      -0.07964600       0.21227900
C       -4.00110200       1.36467100       0.31132200
C       -2.90421200       2.19530500       0.29347100
C       -3.03679800       3.55383500       0.38952700
C       -4.29273800       4.15163700       0.50965700
C       -5.36835200       3.29906000       0.52471200
C       -5.24200900       1.94590700       0.42940700
C       -2.67300500      -0.70760900       0.09149300
N       -2.56597400      -2.03266800      -0.00079000
C        0.27411700      -1.06156300      -0.12292000
C        1.58358600      -0.64791100      -0.18150800
N        4.55169400       0.13002100      -0.32959500
C        5.98120000       0.46802700      -0.34503700
C        6.05549800       1.65749900       0.63144500
C        4.75536000       2.30866700       0.31143800
C        4.37463500       3.61235300       0.50248000
C        3.10741400       3.98715200       0.11000800
C        2.29279400       3.03674000      -0.45132100
N        2.68738800       1.78592600      -0.62306400
C        3.90270500       1.38535000      -0.25706100
22
Properties=species:S:1:pos:R:3 energy=-3.7288121644493097 pbc="T T T"
C        5.45405300      -0.99285000       1.67820600
C        4.49429600      -0.56770200       2.57513800
C        3.23250000      -0.33516800       2.07219600
C        2.91609500      -0.51059300       0.74153800
C        1.54843000      -0.23541300       0.31552400
C        0.44303400      -0.66973400       1.01345000
N       -0.82230100      -0.39331800       0.58468400
C       -1.03231700       0.31634900      -0.53991900
N       -2.32885600       0.61788400      -1.00831600
C       -3.52384000       0.23277800      -0.38774400
C       -4.73627200       0.58142400      -0.93165900
N       -5.88412500       0.19435800      -0.30832400
C       -5.87285700      -0.52319800       0.83053500
N       -4.68841600      -0.87622800       1.38162700
C       -3.52596500      -0.50145200       0.77768200
C        0.05499900       0.76584600      -1.26178700
C        1.36263800       0.49337500      -0.83961400
C        2.32337200       1.08478200      -1.78569300
C        1.44522500       1.91795900      -2.69679600
O        0.11746900       1.50198900      -2.43054500
C        3.87673800      -0.93311400      -0.14066800
C        5.14610200      -1.16797500       0.36048500
19
Properties=species:S:1:pos:R:3 energy=-inf pbc="T T T"
C        0.97161500      -2.22753900      -0.95616300
N        0.04374700      -1.11631500      -0.81419300
C        0.66593100       0.06385600      -1.32638500
C        1.97573900       0.38020200      -0.66172000
C        2.10296400       1.21804900       0.41616800
C        3.31161700       1.49502300       1.01164600
C        4.47223200       0.92399900       0.53262000
C        4.36318300       0.08014400      -0.54879200
C        3.15129700      -0.19523100      -1.14267400
C       -0.38234600      -0.94567900       0.56826300
C       -1.10376000      -2.20177100       1.05195000
C       -2.10279200      -2.59118700      -0.01161400
O       -2.82997100      -1.48156400      -0.47898700
C       -2.68151300      -0.17701200      -0.05592500
C       -3.66074900       0.78914800      -0.13825600
C       -3.44614100       2.07796400       0.30464200
C       -2.20304200       2.35996200       0.83620200
C       -1.20936300       1.40657000       0.92738600
C       -1.43864800       0.14137900       0.48583200
24
Properties=species:S:1:pos:R:3 energy=-1.3898594272843872 pbc="T T T"
C        1.11157000      -4.80441800       2.97513200
C        0.60436600      -3.61552100       2.23028400
C       -0.73661100      -3.31530700       2.00046600
C       -0.70725600      -2.13883200       1.28167600
C       -1.66222800      -1.30921300       0.74122200
C       -1.32731100      -0.15496600       0.04653900
C       -2.38848100       0.69977600      -0.51294200
C       -2.95537100       0.60855800      -1.76686000
C       -2.60697900      -0.37581400      -2.81011500
N       -3.89027200       1.59894900      -1.84589400
O       -3.90396300       2.25991600      -0.72001100
C       -3.00802800       1.74850900       0.11881000
C       -2.70827600       2.20446800       1.49266500
N       -0.02878500       0.15641600      -0.09929400
C        0.92944400      -0.60702400       0.40078000
N        2.31241200      -0.31574500       0.27016100
C        2.78554300       0.83827900      -0.41965500
C        4.10553200       1.13749200      -0.55742500
C        4.50369900       2.26753700      -1.23510600
C        3.55641600       3.10770400      -1.78160400
C        2.21614100       2.80109700      -1.64000400
C        1.85371000       1.66956300      -0.96018500
C        0.60535900      -1.76656000       1.09907100
O        1.33936600      -2.69486500       1.69228900
33
Properties=species:S:1:pos:R:3 energy=-2.734189589305246 pbc="T T T"
O        4.56371400      -0.86515500      -1.70854300
C        3.45982400      -0.98524500      -1.12269300
N        3.38036200      -1.94315000      -0.07771900
C        4.54157700      -2.75373200       0.29575300
C        5.66845600      -1.84377500       0.73751100
C        5.25909100      -1.02815300       1.90386000
C        4.66765600       0.19883900       1.96594300
N        4.50811900       0.49124800       3.26960400
C        4.97454600      -0.50017800       4.01398300
N        5.44029000      -1.44293400       3.18175600
C        2.29740500      -0.18184100      -1.48809200
C        2.33724400       0.75689800      -2.49672500
C        1.22727500       1.51067800      -2.83153500
C        0.02751600       1.35588500      -2.16881100
C       -1.14686700       2.15471800      -2.52451100
N       -1.25344700       3.09759200      -3.47668500
C       -2.50472900       3.59260700      -3.47936100
C       -3.21050600       2.93660200      -2.49245400
C       -4.49173300       2.97804400      -2.00330700
N       -4.86874700       2.17189600      -0.99447800
C       -4.02721200       1.29586700      -0.41866700
C       -4.48487600       0.44285200       0.67320900
C       -5.77505100       0.49536500       1.15421500
C       -6.21236500      -0.30884100       2.18606400
C       -5.35022200      -1.20817400       2.77808800
C       -4.05512200      -1.26842500       2.30321500
F       -3.22565800      -2.16239500       2.90316600
C       -3.61739500      -0.45251200       1.25881900
C       -2.74018800       1.25186400      -0.90752000
N       -2.35027900       2.06732500      -1.93155600
C       -0.00686900       0.41602300      -1.16125600
C        1.10010900      -0.33933000      -0.82353900
H        5.86808300      -2.34078100       3.48226500
30
Properties=species:S:1:pos:R:3 energy=-1.5193174945212737 pbc="T T T"
C        7.94027500      -3.02073200       1.77973100
N        7.41563600      -1.80951200       1.18796000
C        8.08891600      -0.75512400       0.70386600
C        7.18501900       0.18849000       0.22922400
C        5.94358500      -0.35393500       0.45365900
N        4.72212200       0.27312600       0.12115600
C        3.45102800      -0.30260800       0.36070400
O        3.41101500      -1.43605100       0.89997600
C        2.20737500       0.40692100      -0.01173500
C        0.97572000      -0.13912200       0.21497500
C       -0.18037000       0.54169600      -0.14138400
C       -0.12166300       1.78459400      -0.73256100
C       -1.34092000       2.50568800      -1.10984000
N       -1.43991600       3.71466400      -1.68919500
C       -2.73867100       4.02619700      -1.87327700
C       -3.46829900       2.96697100      -1.38799100
C       -4.82064600       2.67564200      -1.28598500
N       -5.22684200       1.51031200      -0.74125100
C       -4.35962000       0.59278400      -0.27991600
C       -4.81800800      -0.66840700       0.30910000
C       -3.93201300      -1.58201700       0.76910600
C       -4.36805900      -2.76451100       1.32117900
C       -5.71890900      -3.03910400       1.41518000
C       -6.59683100      -2.08587100       0.93649600
C       -6.16115300      -0.90330900       0.38438100
C       -3.01224700       0.88652600      -0.38321000
N       -2.59296200       2.05090400      -0.92713300
C        1.12775900       2.32219100      -0.95475400
C        2.29260200       1.63694900      -0.59604800
N        6.13607600      -1.54685600       1.02758700
34
Properties=species:S:1:pos:R:3 energy=0.0 pbc="T T T"
C       -2.13793400      -2.98980900       0.56280900
C       -1.89223600      -1.53691500       0.03224800
C       -2.48429600      -1.37073000      -1.27286700
C       -2.24646300      -0.42482900      -2.23359800
C       -2.91701500      -0.38594800      -3.43547100
C       -3.88315100      -1.30970300      -3.74919500
C       -4.16081500      -2.29226000      -2.80137700
C       -3.48428800      -2.31415700      -1.61236500
N       -2.57453200      -0.74231100       1.07425700
C       -3.89980800      -0.20403700       1.11692300
C       -3.88831000       1.25884600       0.85472300
C       -3.96412800       2.14170300       1.94884000
C       -3.96792800       3.49668200       1.78802900
C       -3.89443400       4.07149700       0.52820100
C       -3.81865200       3.22098000      -0.55102700
C       -3.81686600       1.84423900      -0.38069900
C       -1.61109400      -0.65558600       2.11964800
O       -1.77312100      -0.62263700       3.36545600
O       -0.35504700      -0.60464300       1.52463400
C       -0.46606300      -1.22741100       0.22667000
C        0.13937600      -0.29167300      -0.75328700
C        1.61049200      -0.06041200      -0.51729500
N        2.30583800      -1.21540500      -0.08817900
C        3.40394200      -1.08658200       0.77141600
C        4.57073700      -0.33064100       0.24502400
C        5.16468900      -0.72022800      -0.92755100
C        6.27097900      -0.02503800      -1.43220400
C        6.75893400       1.05870900      -0.73705700
C        6.15989600       1.44943700       0.44579300
C        6.69703000       2.60206900       1.16824300
N        7.11273600       3.53784500       1.72689700
C        5.08297800       0.74727700       0.90564200
C        1.67811700      -2.46732500      -0.21991700
C        0.28043600      -2.55100700       0.30663600
32
Properties=species:S:1:pos:R:3 energy=0.0 pbc="T T T"
C       -0.82264000      -2.46227100       3.39707900
C        0.22249200      -2.42297600       2.31058100
N        1.53727900      -2.66891900       2.46496800
N        2.12959000      -2.54085500       1.30309900
C        1.20739800      -2.20237300       0.34155100
C       -0.00307500      -2.12712900       0.97770200
C       -1.25981200      -1.83021300       0.31943200
C       -1.92868000      -2.89770800      -0.24214200
C       -3.12765100      -2.72506800      -0.89504600
C       -3.68319700      -1.47779800      -0.99964200
C       -3.01559100      -0.42986800      -0.44199500
C       -1.80978700      -0.59794200       0.21567800
O       -1.20350800       0.50241400       0.75129200
C       -1.77857700       1.75776900       0.68333500
C       -2.58672700       2.17362700       1.71639600
C       -3.15020400       3.42633400       1.62915200
C       -2.92058600       4.23879600       0.55504600
C       -2.12422700       3.85058200      -0.48104700
C       -1.55518000       2.57647000      -0.38537400
N        1.62475600      -2.02337400      -1.00387600
C        0.96731000      -1.01515700      -1.81180000
C        1.38849100       0.31138200      -1.23222400
C        1.95400900       0.40929000       0.02686300
C        2.36718800       1.58807100       0.58186200
C        2.22234700       2.75313300      -0.13285000
C        1.66414000       2.70116600      -1.39000300
C        1.48563000       3.87572900      -2.18472500
N        1.33243200       4.82373300      -2.84722000
C        1.25017800       1.48939400      -1.93554700
C        2.70699100      -2.82436700      -1.56242700
C        3.41965600      -3.56300600      -0.48591800
C        3.48955400      -2.66886300       0.75779800
24
Properties=species:S:1:pos:R:3 energy=0.0 pbc="T T T"
N        6.82588400       2.49013100       0.28050800
C        5.93618500       1.78989600       0.04514700
C        4.83856900       0.90184600      -0.23244700
C        4.55447200       0.49108400      -1.51709600
C        3.50126700      -0.36373200      -1.80155700
C        2.69110800      -0.83800600      -0.79166900
C        1.55944800      -1.76014600      -1.12174500
N        0.82570200      -2.15266000       0.04048600
C       -0.24087400      -3.03914300      -0.38696700
C       -1.26704000      -2.06887300      -0.91445300
C       -1.24252600      -0.99331000       0.17603100
C        0.16693500      -1.06281800       0.71747500
N       -2.22581000      -1.38174900       1.15528700
C       -3.47697300      -0.74647200       1.33131800
O       -4.36286100      -1.18459000       2.10830500
C       -3.71950300       0.46974400       0.56237500
C       -4.89253200       1.14451100       0.66925400
C       -5.14179600       2.30929200      -0.05844200
C       -4.14699500       2.75861000      -0.89961000
C       -2.94177700       2.06365800      -1.00819600
C       -2.72492000       0.91550600      -0.27606700
O       -1.51164600       0.26249600      -0.41960500
C        2.97121100      -0.43036500       0.49271800
C        4.02447300       0.42508800       0.78115400
21
Properties=species:S:1:pos:R:3 energy=0.0 pbc="T T T"
N        5.28672300       0.23171200       2.50468900
C        4.63285500       0.44089100       1.57695200
C        3.82098700       0.68180100       0.41991300
C        4.29681700       1.35694200      -0.66824300
N        3.51488100       1.57600800      -1.74507100
C        2.22110600       1.14320300      -1.81136400
C        1.71143500       0.46033600      -0.73238000
N        0.37467600      -0.01504100      -0.74371100
C       -0.43873800       0.16394400      -1.93101700
C       -1.80183100      -0.45552600      -1.83366900
C       -1.62092600      -1.96470800      -2.01719400
C       -1.35618900      -2.48144700      -0.60100300
C       -1.47069600      -1.25154200       0.29956100
C       -0.10129100      -0.65713200       0.45248700
N       -2.25617800      -0.35911800      -0.49595500
C       -3.65390700      -0.38591500      -0.25945700
C       -3.88563900       0.19186600       1.13432600
F       -3.21665700      -0.57197000       2.09387300
F       -3.33959000       1.47548800       1.17764500
F       -5.21561100       0.18516200       1.48459500
C        2.49777300       0.23504600       0.36127900
33
Properties=species:S:1:pos:R:3 energy=0.0 pbc="T T T"
O       -0.33942300       0.64467400      -2.13906300
C       -0.65891100       0.00611000      -1.11157000
N       -0.07029500       0.36762200       0.11966900
C       -0.42833600      -0.35876200       1.31283800
C        0.82310800      -0.98322000       1.89095000
N        1.98167700      -0.16534800       1.70420500
S        3.07369000      -0.82112000       0.53787900
O        2.51920000      -0.62620100      -0.86261700
O        3.25993900      -2.46324800       0.75977500
C        4.60105300       0.01052700       0.68628600
C        5.58820100      -0.44314900       1.53016500
C        6.79257400       0.26413700       1.60821400
C        6.99153800       1.40191400       0.85061200
C        6.00662100       1.85588400       0.00765500
F        6.15052500       2.96632100      -0.75727000
C        4.82640500       1.13668100      -0.04913300
C        1.70219100       1.21655900       1.46319300
C        0.88049500       1.44565000       0.21433800
N       -1.59131400      -1.05005600      -1.20833600
C       -2.15279400      -1.36314000      -2.50456000
C       -3.67302500      -1.24518300      -2.31424300
C       -4.07373100      -2.34262200      -1.38736300
C       -3.51402900      -2.06786600      -0.02325500
C       -2.03186300      -1.85243200      -0.09106800
C       -4.21359700      -0.84801000       0.51619200
C       -3.76895700      -0.52521700       1.92392000
C       -4.48976400       0.69898300       2.38603200
C       -4.34217800       1.86845400       1.46317800
C       -3.69256100       1.52007400       0.17458600
O       -2.94062600       2.37232700      -0.36194600
N       -3.95039700       0.24956900      -0.38585600
C       -3.93397700       0.13100300      -1.82449600
H       -5.33144000      -1.00091500       0.48316400
25
Properties=species:S:1:pos:R:3 energy=0.0 pbc="T T T"
O        2.76435900       1.78504900       0.39067200
C        3.08782300       0.58546700       0.20192200
N        2.11619300      -0.40422800      -0.03038800
C        0.71849400      -0.10658900      -0.06501200
N        0.23463900       1.13520600       0.12120900
C       -1.08088600       1.42094700       0.08960600
C       -2.02392300       0.43646300      -0.14005200
C       -3.44431500       0.76610200      -0.17050900
C       -3.95949800       1.85658400      -0.83879600
C       -5.31063900       2.15787000      -0.85946700
C       -6.18846500       1.33229500      -0.18154500
C       -5.69491500       0.23609000       0.49355000
F       -6.57506500      -0.55644700       1.14942300
C       -4.34420800      -0.04168100       0.49836100
C       -1.54133100      -0.84292200      -0.33289400
C       -0.17648400      -1.13125100      -0.29869100
O       -0.00507900      -2.49786900      -0.52595700
C       -1.25745600      -3.14956000      -0.36707300
C       -2.30977100      -2.08506800      -0.59660700
C        4.49028000       0.20195400       0.22190200
C        5.46799400       1.16460800       0.44977100
C        6.78562000       0.76146900       0.46109700
N        7.15384100      -0.50415600       0.26372700
C        6.20805200      -1.42351200       0.04536100
C        4.88473900      -1.09682200       0.02038700
22
Properties=species:S:1:pos:R:3 energy=0.0 pbc="T T T"
C       -7.12489000       0.09239400       1.09271400
O       -6.69881700      -0.07731900      -0.21781800
C       -5.33500600       0.11140000      -0.51588100
C       -4.41847700       0.44756600       0.42211300
C       -3.07341900       0.61022100       0.17395800
C       -2.63853200       0.40357000      -1.13058500
O       -1.31960800       0.53436600      -1.41698600
C       -0.36451400       1.14116000      -0.52848500
C       -0.10572200       0.43599800       0.76309200
N        0.23171300      -0.75946500      -0.01956400
C        1.18287400      -1.63830600       0.68844700
C        2.52327200      -0.98547800       0.71997600
C        2.77225900       0.34436700       0.52314800
C        4.05832400       0.83940100       0.50503700
C        5.14426700       0.01963200       0.68430300
C        6.49306900       0.52669400       0.66831400
N        7.61289900       0.93600500       0.68221700
C        4.90913400      -1.32727900       0.88347500
C        3.59474000      -1.80938200       0.89671900
C        0.94805700       0.22315900      -0.90531700
C       -3.53589800       0.06431900      -2.13704500
C       -4.85572600      -0.07792400      -1.83182900
23
Properties=species:S:1:pos:R:3 energy=0.0 pbc="T T T"
F        5.90569600       0.48535800      -1.02339000
C        4.92219400      -0.41890100      -0.69023500
C        5.22594600      -1.75839600      -0.56004300
C        4.19434000      -2.60888700      -0.22470500
C        2.91967300      -2.12628700      -0.03115900
C        2.60726700      -0.78187500      -0.16027100
C        1.24612600      -0.28965000       0.04970500
C        0.16583300      -0.94676000      -0.49456900
N       -1.10037500      -0.52280600      -0.32229300
C       -1.34364000       0.59238300       0.41218800
N       -2.67595900       1.04376600       0.59709400
C       -3.78706200       0.36369000       0.03433700
C       -3.56341700      -0.77194500      -0.71584000
C       -4.65908700      -1.43647800      -1.26667300
C       -5.94709700      -0.97594300      -1.07163600
N       -6.11427400       0.12888300      -0.33721200
C       -5.07431300       0.78549000       0.20315800
C       -0.28020200       1.26857700       0.96787400
C        1.03635100       0.82631100       0.78775800
C        1.94223600       1.76965500       1.51031200
C        1.01888200       2.89628100       1.96361100
O       -0.28595400       2.40996800       1.74177600
C        3.64683500       0.06756800      -0.49710300
25
Properties=species:S:1:pos:R:3 energy=0.0 pbc="T T T"
O        4.70961500      -1.51133400       3.19744700
C        5.06229500      -1.44009400       1.99662400
O        6.37027700      -1.70827300       1.69414900
C        4.06357400      -1.07596800       0.98507700
C        2.76034300      -0.81693200       1.35019000
C        1.81103400      -0.47187900       0.39682500
C        2.12949100      -0.37518700      -0.93999600
C        1.13330800      -0.01319500      -1.93978900
N        1.32332800       0.11206000      -3.26441100