21
Properties=species:S:1:pos:R:3 energy=4.787491742782046 pbc="T T T"
O       -2.04244100      -1.60806800      -0.46576000
C       -2.51300000      -0.46682700      -0.54383900
N       -1.60046900       0.62449200      -0.32668100
C       -0.23334200       0.35761600      -0.03918100
C        0.29667500      -0.91305700       0.04905100
N        1.61751800      -1.08587700       0.32850700
C        2.44622600      -0.06047200       0.52640100
C        3.84369200      -0.31212100       0.82068900
C        4.32117100      -1.59710000       0.89735600
C        5.62116400      -1.92573400       1.16923400
C        6.51143000      -0.89275400       1.38048400
C        6.06645300       0.42405300       1.31141300
C        4.74874300       0.70980900       1.03488600
N        1.93073500       1.18019400       0.44068200
C        0.62562600       1.41646600       0.16586000
C       -3.91265900      -0.19137900      -0.83814100
C       -4.77875500      -1.24309900      -1.04451700
C       -6.12688500      -0.99063100      -1.32824000
C       -6.61386800       0.28386000      -1.40723700
C       -5.76441200       1.34482100      -1.20424100
C       -4.44360200       1.07436900      -0.92672700
25
Properties=species:S:1:pos:R:3 energy=4.787491742782046 pbc="T T T"
C       -4.14498400       3.75402500       0.13519800
O       -3.88149700       2.39338500      -0.19336700
C       -2.59604900       1.93760000      -0.04348200
O       -1.69889900       2.71461700       0.37163100
C       -2.21747000       0.52017400      -0.36316800
C       -3.07635900      -0.43831500       0.45396600
C       -2.51819500      -1.79945400       0.27325300
N       -3.01259800      -3.01148000      -0.03057000
C       -2.00064400      -3.89529300      -0.04929900
N       -0.85858900      -3.23958800       0.24424100
C        0.48611100      -3.77691200       0.34070600
C       -1.16296200      -1.96577800       0.44166300
C       -0.39228700      -0.71666500       0.78906100
N       -0.81638400       0.28994300      -0.14756700
C        0.14339000       1.03945600      -0.84749100
O       -0.24829800       1.91327000      -1.66296900
C        1.58724500       0.80648500      -0.63055000
C        2.50571800       1.54791100      -1.32293900
C        3.88080900       1.36726700      -1.15487100
C        4.35515700       0.42120600      -0.27203200
C        5.77520900       0.21030600      -0.07576500
N        6.91014600       0.03389200       0.06559300
C        3.42130800      -0.31990000       0.42007000
C        2.04649500      -0.14167700       0.25426600
H       -2.48637700       0.35552400      -1.42962900
32
Properties=species:S:1:pos:R:3 energy=4.14946386144318 pbc="T T T"
C        7.83565100       3.11322300       1.07051700
C        6.54001000       2.42287300       0.82819600
C        6.51068500       1.11928900       0.38071700
C        5.30871600       0.46951600       0.15270800
C        4.10110700       1.09951400       0.36385400
C        2.86165300       0.37483100       0.10994600
N        2.73155300      -0.89024500      -0.32469300
O        1.47764800      -1.20846600      -0.43924500
C        0.74297500      -0.18997600      -0.09291900
C       -0.74881600      -0.05827200      -0.05404500
C       -1.23597600      -0.88377900       1.11262300
C       -1.12409300      -2.31795600       0.75254700
N       -1.32517800      -3.39449600       1.54833400
C       -1.11707300      -4.47789000       0.81178400
N       -0.78724900      -4.09331300      -0.43875200
C       -0.78317000      -2.76533400      -0.50655400
C       -0.50266500      -1.79302400      -1.59364200
N       -1.32981600      -0.61776000      -1.26065400
C       -2.64972900      -1.15937100      -0.99975800
C       -3.65294200      -0.15175700      -0.65270000
C       -4.92879400      -0.55469800      -0.34353400
C       -5.93176900       0.30722900      -0.00942000
C       -5.65262600       1.65422500       0.02020100
C       -4.36216900       2.09249900      -0.29012800
C       -4.13908900       3.50751400      -0.24031800
N       -3.94800700       4.65750100      -0.18229500
C       -3.36501400       1.18987000      -0.62583300
N        1.59942300       0.81460100       0.25544600
C        4.12494100       2.40015600       0.81029900
C        5.33356400       3.05339100       1.03952700
H       -1.01379900       1.01805400       0.06325700
H       -0.56995200      -4.73794500      -1.22714800
22
Properties=species:S:1:pos:R:3 energy=3.9512437185814275 pbc="T T T"
O        1.61134700       1.52507400      -0.69159600
C        2.20087200       0.56943400      -0.12940300
N        1.39081100      -0.46963100       0.40471500
C       -0.02711800      -0.38838300       0.28419100
C       -0.77960400      -1.40696000       0.80986200
N       -2.11159300      -1.34671800       0.70556100
C       -2.73895500      -0.32574500       0.10516900
C       -4.20481700      -0.28308500       0.00350700
C       -4.80330500       0.77562900      -0.61630500
C       -6.17489600       0.82005600      -0.71394100
C       -7.00126400      -0.16671100      -0.20988200
C       -6.36603400      -1.23092900       0.41494100
C       -4.99498400      -1.28594400       0.51842800
N       -1.99686300       0.66718100      -0.40681000
C       -0.65762400       0.66317800      -0.33335800
C        3.66334000       0.54594600      -0.03859200
C        4.37442100       1.58932700      -0.58024100
C        5.75206300       1.62468400      -0.52660200
C        6.38616700       0.57827000       0.08828000
C        5.70919800      -0.49473800       0.64820000
F        6.43137000      -1.47270000       1.22975600
C        4.33747000      -0.48723200       0.57106700
33
Properties=species:S:1:pos:R:3 energy=4.627909672957581 pbc="T T T"
C        8.54850200       2.49575100      -0.89523900
C        7.18272600       1.95310500      -0.64447700
C        7.01739900       0.86035700       0.18102400
C        5.75466500       0.34292000       0.42503900
C        4.62179400       0.88994300      -0.13894400
C        3.28506300       0.34505700       0.11714700
N        2.99559200      -0.69824100       0.88901100
O        1.71049900      -0.89341000       0.88073300
C        1.10794100      -0.01215600       0.12369900
C       -0.36902300       0.12629300      -0.16667300
C       -0.94787700       0.78589100       1.06570900
C       -0.50737500      -0.06538600       2.20898000
N        0.05618100       0.02532300       3.39598900
C        0.16885800      -1.23228300       3.91139000
N       -0.33204600      -2.12722500       3.03414100
C       -0.75508700      -1.43433600       1.97772200
C       -1.39545400      -1.82163100       0.70843500
N       -0.85468900      -1.16500600      -0.43021600
C       -1.60283700      -1.33150500      -1.62780100
C       -2.97237100      -0.84495200      -1.58296900
C       -3.25704400       0.44799900      -1.93761200
C       -4.54960500       0.93335500      -1.90324900
C       -5.59030800       0.11572900      -1.50654800
C       -6.97758300       0.62329100      -1.46557500
O       -7.18753000       1.79906300      -1.79494700
O       -7.98774400      -0.20793100      -1.06907300
C       -5.29196800      -1.17988800      -1.15302300
C       -4.00048800      -1.66092200      -1.18855200
N        2.10747200       0.77875800      -0.36469000
C        4.79794600       1.98230400      -0.96280600
C        6.05078300       2.50479500      -1.21196000
H       -0.44830800       0.82707600      -1.04526400
H       -0.37808300      -3.16213900       3.16100000
25
Properties=species:S:1:pos:R:3 energy=4.787491742782046 pbc="T T T"
C       -1.06445700      -3.20881800      -1.75496200
O       -1.15029500      -2.49871300      -0.53361000
C       -0.87732600      -1.13785000      -0.47795700
O       -0.55433200      -0.59136500      -1.57010400
C       -0.97073000      -0.41217500       0.79987700
C       -2.43096500      -0.50507400       1.24179800
C       -3.26191400       0.36359500       0.34388500
N       -4.42123800       0.15717700      -0.27649400
C       -4.68478000       1.29358700      -0.96190800
N       -3.68901600       2.18988500      -0.75958200
C       -3.59031400       3.51800600      -1.30982500
C       -2.79084600       1.62742000       0.05377600
C       -1.53319700       2.04268700       0.65199600
N       -0.56643100       0.96818200       0.63788200
C        0.80385100       1.30578700       0.46100300
O        1.05171500       2.55876500       0.32101200
C        1.90018600       0.34992800       0.43116800
C        3.18523900       0.84433000       0.23931700
C        4.29221300       0.02511900       0.19921300
C        4.17249500      -1.33985700       0.34967100
O        5.28323000      -2.17774800       0.31102600
C        6.58226600      -1.67341600       0.11663200
C        2.89946900      -1.83378900       0.54014800
C        1.79872700      -1.00035800       0.57813100
H       -0.38354900      -0.86530700       1.59350800
25
Properties=species:S:1:pos:R:3 energy=4.787491742782046 pbc="T T T"
N        7.64506400      -1.08896200       0.63532900
C        6.56489600      -0.62995600       0.63058400
C        5.24194500      -0.07240600       0.61443400
C        5.02015500       1.28526800       0.80496400
C        3.75313900       1.82594000       0.79052600
C        2.66477900       1.02200800       0.58425100
C        1.30652600       1.59898700       0.56837400
N        1.01754500       1.97683700      -0.81124200
C       -0.33947900       2.54493400      -0.78172800
C       -1.29923100       1.60474900      -1.44138700
C       -1.28378800       0.23418300      -0.78389900
C        0.16762000      -0.23938700      -0.69588400
C        0.96960100       0.71161300      -1.56070800
C       -1.99112600      -0.73731800      -1.69768200
C       -3.24666900      -1.27428100      -1.13037500
O       -3.67897700      -2.40514000      -1.47545100
C       -3.96654300      -0.46177700      -0.16538900
C       -5.35274800      -0.54536900      -0.09861600
C       -5.98450400       0.25515800       0.84487700
C       -5.24061300       1.07261800       1.65014700
C       -3.86693900       1.15320900       1.58160700
C       -3.22414900       0.36360000       0.64899800
O       -1.85260000       0.35492100       0.48482200
C        2.85425500      -0.32037000       0.39358700
C        4.12184100      -0.84932500       0.40986000
25
Properties=species:S:1:pos:R:3 energy=4.787491742782046 pbc="T T T"
N       -5.57860900       2.42405800      -2.53873800
C       -5.31959000       1.67393100      -1.71466900
C       -5.00558200       0.74650300      -0.66287200
C       -5.87798000       0.39664300       0.32826800
C       -5.46535100      -0.50977400       1.29278200
C       -4.21231900      -1.06307200       1.28099300
C       -3.32662700      -0.71101600       0.27894400
C       -1.97775400      -1.29472500       0.25033800
N       -1.25111600      -0.76809400      -0.89003600
C       -1.14802000       0.67565500      -0.78570600
C       -0.11091100       0.95975800       0.27790300
C        0.56696100      -0.39024400       0.47350300
C        2.03710100      -0.28607000       0.46160000
N        2.90949500      -0.67591700       1.41512800
C        4.16745400      -0.41552800       1.04072000
C        5.40688500      -0.60508600       1.62057500
C        6.58034000      -0.23139300       0.99311600
C        6.47992900       0.34885500      -0.25526300
C        5.25607000       0.54862600      -0.85462500
C        4.09611100       0.16818700      -0.21089400
N        2.78968700       0.23664000      -0.54277600
C        0.12779600      -1.18518600      -0.75773000
C       -3.74171200       0.18126800      -0.66519600
H        0.22374200      -0.85010600       1.40238500
H        2.37399900       0.62608900      -1.43033100
24
Properties=species:S:1:pos:R:3 energy=4.087655574071304 pbc="T T T"
C        6.47458000       1.12356400      -0.23993600
O        6.36605800       0.22425700       0.84928300
C        5.08502900      -0.20267000       1.17197900
C        4.98149100      -1.08519300       2.24133400
C        3.72524500      -1.53991400       2.60213900
C        2.59953000      -1.11611100       1.90277800
C        2.69456000      -0.24199600       0.84242000
C        1.51974700       0.21213600       0.09806400
C        1.48263600       1.07809000      -0.97318800
N        0.22213600       1.25257100      -1.38691500
C       -0.55732900       0.50598500      -0.59148500
N        0.23830300      -0.13158200       0.31856300
N       -1.95847600       0.48772600      -0.78994900
C       -2.86144400      -0.04838200       0.16048900
O       -2.34583900      -0.52534300       1.22806100
C       -4.29494900      -0.07083900      -0.03460700
C       -5.23507000      -0.56964700       0.83280000
C       -6.48388000      -0.37945700       0.23155300
C       -6.20229000       0.23126200      -0.97679800
O       -4.89853100       0.39801300      -1.10023700
C       -2.49493200       1.03806100      -2.01234300
C       -1.73981300       2.28849300      -2.39575700
C       -0.26950500       2.07174800      -2.47232300
C        3.95274200       0.20284800       0.49407400
21
Properties=species:S:1:pos:R:3 energy=4.534747721691546 pbc="T T T"
N       -5.93344400       3.01062000       1.60979600
C       -5.19508400       2.18115300       1.28096100
C       -4.27903800       1.13728500       0.87399300
C       -4.02581000       0.89988400      -0.47142800
C       -3.16661500      -0.09952300      -0.87998800
C       -2.51692300      -0.90788200       0.03102600
C       -1.57442700      -1.97629700      -0.41275100
N       -0.22945900      -1.67855400      -0.13188700
C        0.76988000      -2.59856000      -0.54338600
C        2.12098500      -1.92709100      -0.71149500
C        2.47308000      -0.95916200       0.36136200
N        3.46376300       0.00073200      -0.08624700
C        3.16168000       1.21773500      -0.85674600
C        4.12974400       2.21670200      -0.21670300
N        5.31185700       1.35947900      -0.05921200
C        4.87204700      -0.00337400       0.11246800
O        5.56519700      -1.01097300       0.38036500
C        1.28905700      -0.19498800       0.90199100
C        0.15278300      -0.31534100      -0.09988100
C       -2.76274000      -0.67778000       1.36930800
C       -3.62653300       0.32593700       1.77798300
21
Properties=species:S:1:pos:R:3 energy=4.787491742782046 pbc="T T T"
C       -6.52698900      -0.43321400      -1.08397700
O       -5.30204000      -1.11938300      -1.20403300
C       -4.18742200      -0.61479400      -0.59356700
C       -4.23182700       0.54732400       0.13578200
C       -3.09053300       1.04753500       0.75037000
C       -1.87280200       0.39988800       0.65299600
C       -0.67926800       0.97297000       1.32752600
N        0.03992100       1.88871100       0.46012700
C        1.17293600       2.37837400       1.22769800
C        1.86957000       1.08113800       1.58441300
C        1.59108500       0.21142000       0.35099600
C        2.84939700      -0.16165900      -0.28119600
N        3.79654000       0.66641800      -0.72488200
N        4.80993800      -0.04361800      -1.24590700
C        4.42467800      -1.33052500      -1.09299600
C        5.22503900      -2.49003100      -1.52185500
O        3.25565800      -1.37568400      -0.51703300
C        0.71478600       1.07496100      -0.53764300
C       -1.84660400      -0.76531900      -0.08303900
C       -2.97169300      -1.26889400      -0.69557300
H        0.95962900      -0.66561900       0.63685400
24
Properties=species:S:1:pos:R:3 energy=4.787491742782046 pbc="T T T"
N        5.36430600       3.67683900      -0.00392500
C        5.02463800       2.56800000       0.00861200
C        4.61869700       1.17640000       0.03564900
C        5.62906300       0.23780400       0.12941100
C        5.22645700      -1.07973400       0.15392200
C        3.91420300      -1.48268000       0.09147200
C        2.93216500      -0.52641500      -0.00126800
C        1.50371800      -0.91583200      -0.07107000
C        1.06153300      -2.22724700      -0.04919500
N       -0.27195400      -2.17404700      -0.12957600
C       -0.65924100      -0.89078900      -0.19921500
N        0.44644600      -0.09142700      -0.16336400
N       -2.02751400      -0.51615500      -0.29329900
C       -2.51472300       0.73690300       0.16819800
O       -1.70787700       1.55207500       0.68167200
C       -3.91206100       1.08074000       0.05504200
C       -4.52664900       2.24657000       0.45383700
C       -5.85654700       2.10206300       0.13755700
O       -6.04399100       0.92057600      -0.42037100
C       -4.89243100       0.27932000      -0.48533600
C       -2.94577500      -1.45895200      -0.88432000
C       -2.38170400      -2.81594600      -1.08359200
C       -1.28678800      -3.19380600      -0.15197800
C        3.30603000       0.79574000      -0.02763900
25
Properties=species:S:1:pos:R:3 energy=4.333361462692601 pbc="T T T"
O       -5.68972500      -1.82722800       0.63469100
C       -5.19316900      -0.75377600       0.22295100
N       -6.03518000       0.34413300      -0.07332100
C       -7.45717400       0.32851700       0.06779700
C       -8.31100700       1.11508900      -0.94006800
C       -8.04907000       1.70821000       0.42458300
C       -3.73296800      -0.64645300       0.05290300
C       -3.12125700      -0.87712500      -1.15719600
C       -1.73310500      -0.77551000      -1.31849400
C       -0.93099000      -0.43733300      -0.25662300
C        0.52065900      -0.32839700      -0.34356200
C        1.29091800      -1.08861800      -1.16967000
C        2.66694200      -0.88639800      -1.14067300
C        3.29331600       0.02039500      -0.34204900
N        4.69984500       0.22475400      -0.29669800
C        5.42554000      -0.67686000      -1.15368800
C        6.73285700      -0.16008400      -1.65032500
C        7.21752300       1.08526900      -0.92677400
C        7.60506700       0.76885900       0.49748100
C        6.36366400       0.75503900       1.39701000
C        5.20804600       1.25647200       0.55927900
N        2.49969100       0.76768100       0.47233800
C        1.19507700       0.59563900       0.46458800
C       -1.55050500      -0.20574800       0.95781000
C       -2.91499400      -0.30652800       1.11302300
25
Properties=species:S:1:pos:R:3 energy=4.772378104971998 pbc="T T T"
C       -4.31955800       2.68224900       0.79400500
O       -5.42873400       1.91243900       0.42283900
C       -5.30905000       0.57774800       0.06537300
C       -6.41612900      -0.15163200      -0.29415900
C       -6.24792000      -1.47551500      -0.64179100
C       -5.01163700      -2.08375600      -0.63920400
C       -3.88465500      -1.35992600      -0.27844000
C       -2.53102900      -2.00541200      -0.26990100
N       -1.59859600      -1.01383100       0.13830800
C       -1.66544800       0.08535900      -0.83373600
C       -0.44930500       0.90052100      -0.41314100
C        0.45318500      -0.05837000       0.33793800
C        1.83576600      -0.01632400      -0.14136100
N        2.26956400      -0.22621600      -1.37451000
N        3.59433100      -0.09014400      -1.36885400
C        3.94148900       0.20189900      -0.12296300
C        5.29327400       0.44650900       0.39612500
C        6.44006500       0.40677500      -0.36370200
C        7.48853500       0.68794600       0.48278700
C        6.93841100       0.88771300       1.72445500
O        5.65462100       0.73350500       1.61058400
O        2.87353400       0.24540200       0.61602700
C       -0.21358300      -1.40369000       0.01437300
C       -4.07633200      -0.03886600       0.06511300
H        0.36920100       0.15561900       1.41942800
24
Properties=species:S:1:pos:R:3 energy=4.71760561531788 pbc="T T T"
C       -6.18506800      -1.08269600      -1.70953400
O       -6.36167000      -0.43733200      -0.45114500
C       -5.21172700      -0.02175200       0.22942200
C       -5.34395300       0.60399900       1.44556900
C       -4.19772400       1.01033300       2.10875400
C       -2.93332100       0.80585100       1.58594100
C       -2.81843100       0.18654200       0.38395300
C       -1.50001500      -0.05577500      -0.21708000
C       -1.25242000      -0.66350300      -1.41050200
N        0.05224200      -0.70793800      -1.62975600
C        0.63095500      -0.12341400      -0.56578900
N       -0.31982500       0.28620800       0.31908600
N        2.04361900       0.01446500      -0.44625900
C        2.71445900       0.07220400       0.79546500
O        2.12870200       0.00747500       1.90718900
C        4.15952900       0.21394100       0.80681800
C        5.01256200       0.30487300      -0.29655000
C        6.30687500       0.42877800       0.17484200
O        6.23588800       0.41322500       1.48459700
C        5.01342200       0.29058900       1.89497500
C        2.82106100       0.09869100      -1.65969100
C        2.02568000      -0.22066400      -2.89369700
C        0.92996100      -1.20351400      -2.67060800
C       -3.95080200      -0.22058700      -0.28218500
23
Properties=species:S:1:pos:R:3 energy=4.787491742782046 pbc="T T T"
C        6.90380000       1.07506200       0.29231100
C        5.55024200       1.24118400       0.87994400
N        4.56438100       0.31985500       0.44332900
C        4.13812100       0.43160800      -0.89069500
C        2.72378300       0.79581100      -1.14565900
N        1.90554700       0.14148400      -0.15351300
C        0.77670600      -0.59919100      -0.54328900
O        0.44232000      -0.73585900      -1.74271500
C       -0.05718200      -1.24375700       0.49545300
C       -1.20483500      -1.99466000      -0.02135500
C       -1.21931200      -3.35094500      -0.31844500
C       -2.47889900      -3.62962400      -0.77137200
C       -3.21197100      -2.46868500      -0.74920500
N       -2.41610200      -1.47647600      -0.28669600
C       -2.75759500      -0.10424100      -0.10712800
C       -3.08049600       0.69097100      -1.19292800
C       -3.41582000       2.01821900      -1.05210000
C       -3.44328100       2.61407400       0.20564400
F       -3.77728400       3.92649200       0.32998300
C       -3.12126300       1.81599900       1.27454600
C       -2.78425300       0.48965100       1.13778100
C        2.26757000       0.25336500       1.22305000
C        3.69582200      -0.21033800       1.41937800
25
Properties=species:S:1:pos:R:3 energy=4.787491742782046 pbc="T T T"
N       -4.78802600       3.87671100       0.83007200
C       -4.71367200       2.75043700       0.54632400
C       -4.60367200       1.34884200       0.20744600
C       -5.47935100       0.79651700      -0.69645600
C       -5.40791500      -0.53230100      -1.04527700
C       -4.42759300      -1.32561100      -0.46753400
C       -3.53098400      -0.81526800       0.44100100
C       -2.49474900      -1.69081200       1.04032900
N       -1.27680500      -1.69731200       0.24998000
C       -1.50959800      -2.17699100      -1.10434800
C       -0.18498500      -1.81777700      -1.78690300
C        0.19262100      -0.54372300      -1.09760000
C        1.53409800      -0.65016000      -0.41957600
N        1.91637800      -1.49674900       0.52427600
N        3.19183500      -1.22674100       0.82755600
C        3.59031600      -0.20071500       0.05633600
C        4.92214500       0.43916100       0.04386100
C        5.27203600       1.49315200      -0.77421200
C        6.58798200       1.80400400      -0.49094500
C        6.97861100       0.92829600       0.48344300
O        5.95321400       0.13921700       0.76569400
O        2.55695200       0.11831700      -0.68393300
C       -0.84037100      -0.31933000      -0.01551900
C       -3.64318800       0.52915800       0.76044800
H        0.20471900       0.26967900      -1.84045000
25
Properties=species:S:1:pos:R:3 energy=4.787491742782046 pbc="T T T"
C        5.14073400       2.93606700       1.15048800
O        4.25516700       2.14779300       0.38591900
C        4.09095500       0.79456700       0.55668000
C        4.79137900       0.09683700       1.50349200
C        4.58570200      -1.26029500       1.62990600
C        3.68682800      -1.91987900       0.81746200
C        2.98321500      -1.22542600      -0.13199100
C        1.99973200      -1.87339500      -1.04002200
N        1.41644300      -0.89143500      -1.93231900
C        0.46359700      -1.57339700      -2.79806800
C       -0.77342200      -1.80136400      -1.94434100
C       -0.51294600      -1.00533400      -0.70125100
C       -1.74533000      -0.33922200      -0.20792400
N       -2.24330100      -0.47737000       1.01354100
C       -3.37061600       0.25197300       1.16360500
C       -4.27741200       0.48293400       2.17697200
C       -5.36277600       1.32503200       1.97037600
C       -5.57352800       1.95414800       0.76183000
C       -4.66497100       1.72098600      -0.24910700
C       -3.58341900       0.88604900      -0.05378400
N       -2.56293900       0.49653500      -0.86897300
C        0.52380100      -0.00605100      -1.16860100
C        3.19854100       0.13036800      -0.24750400
H       -0.04349200      -1.63877600       0.06337500
H       -2.42194000       0.78865400      -1.84976100
24
Properties=species:S:1:pos:R:3 energy=4.787491742782046 pbc="T T T"
C        5.83818200       0.03615900      -1.66264100
O        5.46639000       1.30137100      -1.21159100
C        4.24123600       1.60545100      -0.65046600
C        3.93872800       2.87838400      -0.22518400
C        2.69134600       3.13849000       0.33427700
C        1.74960900       2.14230700       0.47118500
C        2.04758100       0.86872200       0.04755100
C        1.07134300      -0.20080600       0.17952300
C        1.22758700      -1.54087700      -0.20241500
N        0.11206400      -2.20386400       0.08071700
C       -0.76443600      -1.29452600       0.64405500
N       -0.16606200      -0.12545700       0.68707300
N       -2.04721400      -1.76445300       1.03575700
C       -3.21792500      -0.99379100       0.91906900
O       -4.29089900      -1.49111400       1.37098000
C       -3.32651800       0.32990700       0.32454600
C       -4.48510800       1.05816800       0.23882500
C       -4.43036300       2.24432900      -0.34087300
C       -3.23014400       2.68009700      -0.82125500
S       -2.21154700       1.37285100      -0.42688000
C       -2.14213800      -3.10549500       1.55642900
C       -1.02263500      -3.99176200       1.22022000
C       -0.33439300      -3.57678400      -0.05552200
C        3.28531600       0.63269400      -0.50229800
24
Properties=species:S:1:pos:R:3 energy=4.787491742782046 pbc="T T T"
N        5.28143100       2.43767200       2.76679600
C        4.97221000       1.48830400       2.16182400
C        4.58304400       0.32117200       1.42218900
C        5.48507500      -0.64221500       1.09364300
C        5.16030500      -1.78508900       0.38235600
C        3.82853400      -1.91974200       0.00038600
C        2.88175500      -0.98289100       0.30384000
C        1.48115900      -1.13574000      -0.10413900
C        0.91475200      -2.17633700      -0.81421100
N       -0.38936600      -1.89669100      -0.95910300
C       -0.68289000      -0.72540800      -0.37447200
N        0.47720700      -0.27567600       0.14340000
N       -1.99189500      -0.17322800      -0.36841600
C       -2.31306800       0.94102200       0.44094200
O       -1.47758800       1.49804200       1.18699000
C       -3.67983500       1.51163100       0.44331600
C       -4.76128600       1.08526500      -0.27938200
C       -5.90254700       1.74844600      -0.12314300
C       -5.91721300       2.80313700       0.74249600
S       -4.31138800       2.83036900       1.31545800
C       -3.02757200      -0.75170100      -1.20128500
C       -2.43739500      -1.69944700      -2.23067100
C       -1.44236000      -2.63344400      -1.61228900
C        3.26893000       0.13255100       1.01423400
22
Properties=species:S:1:pos:R:3 energy=4.787491742782046 pbc="T T T"
C        5.22143200      -0.75929000       0.52141600
N        4.50578900      -0.98892300       1.77198800
C        3.67795200      -2.16575900       1.59132800
C        2.71813300      -1.89666100       0.43788100
N        2.07771000      -0.63261200       0.70431600
C        1.27152600      -0.01607300      -0.28247100
O        1.09841900      -0.55941300      -1.41103100
C        0.60931100       1.27976600      -0.02214600
C       -0.16499600       1.69380000      -1.21157300
C        0.35440900       2.46110600      -2.23603700
C       -0.66051300       2.63524600      -3.15239100
C       -1.74769300       1.96333600      -2.63703400
N       -1.44611400       1.39245700      -1.45948400
C       -2.29047900       0.61127500      -0.60698600
C       -2.09501900       0.55416100       0.75765000
C       -2.92016900      -0.20596000       1.56925600
C       -3.96836100      -0.93519300       1.04872400
F       -4.75990300      -1.67124400       1.87252900
C       -4.17214000      -0.88471300      -0.31448900
C       -3.34196100      -0.12226400      -1.11590500
C        2.26937800      -0.00575000       1.98810000
C        3.76328800       0.16693100       2.18636000
24
Properties=species:S:1:pos:R:3 energy=3.6027767550605247 pbc="T T T"
N        6.58809300      -1.36014200       0.09885800
C        5.48325900      -1.58122000      -0.12871800
C        4.10086100      -1.84521100      -0.41158700
C        3.64505200      -3.04348400      -0.90768000
C        2.30077300      -3.21561400      -1.15209500
C        1.40055900      -2.17172700      -0.89557400
C        1.84682000      -0.96926200      -0.39925200
C        0.97049000       0.16120300      -0.10812000
C        1.32287700       1.39642300       0.38729900
N        0.25323500       2.16914400       0.52231700
C       -0.81129000       1.40620300       0.10218800