33
Properties=species:S:1:pos:R:3 energy=-1.9066096985038217 pbc="T T T"
C        0.28688100      -3.05838800      -2.99324100
O        1.52156800      -2.75075900      -2.36590000
C        1.52187900      -1.89230100      -1.26483100
C        0.36752000      -1.33059900      -0.76209700
C        0.35846700      -0.48195800       0.32459500
C       -0.86969600       0.09979600       0.83938100
O       -0.80557900       0.86554100       1.83259000
N       -2.14496500      -0.15017000       0.27964100
C       -3.32977900       0.46144200       0.84088000
N       -4.55606800       0.29109600       0.39254000
C       -5.54915800       0.89504200       0.97995200
C       -6.93504200       0.71997000       0.49615300
C       -7.26151100      -0.07166000      -0.57832100
C       -8.59451800      -0.20338400      -0.99645200
C       -9.56841500       0.47308400      -0.31279600
C       -9.25672000       1.26247600       0.75605700
C       -7.93953800       1.37508700       1.14675400
C       -5.24215500       1.69108200       2.05738700
S       -3.54801100       1.52046200       2.15669700
C        1.56777200      -0.19783500       0.91700700
C        2.74158300      -0.75008400       0.43006600
C        2.71372300      -1.59812400      -0.66280900
N        3.92891300      -2.17182800      -1.16919400
S        5.44100800      -1.81011100      -0.42130100
O        5.34328900      -2.18393600       1.03591800
O        6.50821900      -2.61596700      -1.10622400
C        5.80726400      -0.11021400      -0.50158100
C        5.40365900       0.74747600       0.49908200
C        5.68757500       2.08809500       0.44471700
C        6.38811600       2.61724800      -0.61789500
C        6.70911600       4.07818400      -0.69774300
C        6.79676900       1.76958900      -1.62413300
C        6.50783300       0.42165000      -1.56334100
33
Properties=species:S:1:pos:R:3 energy=-2.7233708350309445 pbc="T T T"
C        5.37501700       3.87840200      -0.57232800
C        5.91321200       2.70311700      -1.36853900
O        5.89113100       1.56973600      -0.52533600
C        4.73168800       1.07618900       0.03926900
C        3.53345200       1.69047300      -0.20994900
C        2.38690700       1.16496400       0.37611100
C        2.42257500       0.05530700       1.19182100
C        3.65133700      -0.53011200       1.41442200
C        4.81201700      -0.03343600       0.84728900
O        6.06139800      -0.62862000       1.07358200
C        6.10250700      -1.75949700       1.90407800
C        5.22520800      -2.82051300       1.26142100
C        1.15739100      -0.44658900       1.78077100
N        0.06622500      -0.32500100       0.77217100
C       -0.71115800      -1.44309100       0.56522600
O       -0.39323600      -2.50837700       1.23098200
C       -1.86452600      -1.64364600      -0.30683900
C       -2.43629800      -2.92904900      -0.51439800
C       -3.49852300      -2.80370600      -1.36794500
S       -4.79630500      -3.53250800      -2.24969500
C       -5.42936700      -2.14360400      -3.00136700
C       -4.61482200      -1.16372300      -2.54419500
C       -3.61931100      -1.49507800      -1.70363900
N       -2.61193400      -0.82794600      -1.03717400
C       -2.45166500       0.63061200      -1.13730600
C       -3.37153700       1.29876900      -0.16526500
C       -4.60621500       1.68136600      -0.65376800
C       -5.54779500       2.30007500       0.14401300
C       -5.27184900       2.55611700       1.47582900
C       -4.03817800       2.17247200       1.95906400
C       -3.10301800       1.55224600       1.14619300
C       -0.06725400       0.89531400       0.05618400
C        1.10292900       1.80933800       0.11931600
31
Properties=species:S:1:pos:R:3 energy=-0.4155363861507536 pbc="T T T"
O       -0.08658700      -0.40329000       0.93678900
C       -0.43665100      -0.59310900      -0.23892300
N       -1.79427900      -0.32320500      -0.56986700
C       -2.69849500       0.15199600       0.45154600
N       -3.96796400       0.42961000       0.24819300
C       -4.69764100       0.85143800       1.23365800
C       -6.12365400       1.18443900       1.09415900
C       -6.73176300       1.04996600      -0.12759100
C       -8.05916200       1.34491600      -0.32050600
C       -8.81036100       1.78773500       0.73021200
C       -8.23871000       1.93543000       1.96819600
C       -6.89134500       1.62712300       2.12651000
C       -4.08093000       0.98465300       2.45926200
S       -2.48662500       0.49115300       2.10580400
C        0.51529200      -1.07249000      -1.22634700
C        0.19970200      -1.30525500      -2.54528700
C        1.12652900      -1.75961900      -3.45462100
N        2.38003200      -1.98210500      -3.03678000
C        2.75704100      -1.77631000      -1.76491100
C        1.81464800      -1.31343900      -0.83662400
N        2.16082600      -1.07894000       0.52264100
S        3.78911300      -1.38406900       0.99856800
O        3.90531700      -1.11615900       2.46734100
O        4.14440000      -2.83700300       0.73104300
C        4.90321500      -0.35476400       0.11963300
C        5.24580700       0.87692100       0.62720900
C        6.12866100       1.72227500      -0.04403900
C        6.68734000       1.34494900      -1.24420100
F        7.54889800       2.14807000      -1.91781700
C        6.33527800       0.10201300      -1.74643300
C        5.46206800      -0.73292700      -1.08151400
30
Properties=species:S:1:pos:R:3 energy=-0.4155363861507536 pbc="T T T"
O        0.63879100       0.29843800      -0.23199600
C        0.36553000       1.52473800      -0.27389600
N        1.43613000       2.42704400      -0.03094600
C        2.76662400       1.93520500       0.24869700
N        3.20542900       0.69206000       0.32595400
C        4.45739300       0.46799200       0.59241600
C        4.99005000      -0.91280600       0.68799800
C        6.31437700      -1.10001600       0.97049700
C        6.88964900      -2.34203100       1.07718900
C        6.10913300      -3.46003700       0.89373600
C        4.77539200      -3.26368700       0.60933800
C        4.19320500      -2.02212500       0.50114900
C        5.26335700       1.55969100       0.78108100
S        4.16238500       2.85359800       0.56195200
C       -0.99572600       2.00079200      -0.56039400
C       -1.30129800       3.34183900      -0.60772700
C       -2.61601800       3.71337900      -0.88566800
N       -3.57003600       2.81357300      -1.10344900
C       -3.30970500       1.51185100      -1.06531500
C       -2.00388600       1.09164800      -0.78995900
N       -1.66246300      -0.29253400      -0.73544800
S       -2.90093000      -1.45006200      -1.01828500
O       -2.26971400      -2.82507600      -0.94341400
O       -3.51676300      -1.25533900      -2.39525000
C       -4.18577300      -1.34725100       0.15788100
C       -4.17381300      -2.06482600       1.33287400
C       -5.23362500      -1.92592200       2.21347800
C       -6.27421200      -1.07740700       1.89959000
N       -6.29555600      -0.37215400       0.75481700
C       -5.25792700      -0.52057400      -0.08679600
25
Properties=species:S:1:pos:R:3 energy=-1.861147324427064 pbc="T T T"
O        3.47896800       0.64354200       3.97132900
S        3.57518000       0.68952700       2.48273000
O        4.13272700       2.03241900       2.10908300
N        4.69998700      -0.50496600       1.97045700
C        5.03205200      -0.50467200       0.56195300
N        5.87256200      -1.33298100      -0.04952600
C        6.06568000      -1.20645000      -1.31892200
C        5.39460200      -0.22127500      -1.98451600
S        4.49813800       0.48938300      -0.71670100
C        2.02254100       0.51894500       1.71082700
C        1.01026300      -0.25730100       2.24919500
C       -0.21683900      -0.38713400       1.63145000
C       -0.49157700       0.25359200       0.44414600
N       -1.71742400       0.16908100      -0.24357300
C       -2.84787300      -0.60917900       0.21998100
C       -3.93857600      -0.44392900      -0.76893800
C       -3.80074900       0.33162000      -1.89261000
C       -4.85028800       0.46717300      -2.80749000
C       -6.05520100      -0.17307000      -2.61005200
Br      -7.49101800       0.02008100      -3.87378800
C       -6.19133500      -0.94916300      -1.48438800
C       -5.14646000      -1.07919600      -0.58128600
O       -5.27491100      -1.86606300       0.56641300
C        0.50736500       1.03021700      -0.10374700
C        1.73218500       1.15654300       0.51797200
27
Properties=species:S:1:pos:R:3 energy=-1.6424581234622342 pbc="T T T"
C        3.52720700       2.68481600      -1.91915200
C        3.21428700       1.32628200      -2.53143800
N        3.34792300       0.32647800      -1.48121000
C        4.49084500      -0.34428100      -1.17236100
C        5.79176800      -0.16785000      -1.85535100
C        4.21812800      -1.19825700      -0.12994700
C        5.16910000      -2.11576900       0.52263300
C        6.58080100      -2.20660700       0.09222600
O        4.79074600      -2.84708800       1.46972300
C        2.89170600      -1.01724300       0.16919900
C        2.13498200      -1.73852800       1.24743800
C        2.35301700      -0.07018100      -0.67080000
C        0.97393300       0.41599000      -0.68771900
O        0.60111400       1.29155100      -1.51137600
N       -0.01223900      -0.06786800       0.21545500
C       -1.34346700       0.44135000       0.15520700
C       -1.72687300       1.40186800      -0.75794700
C       -3.01314500       1.90419000      -0.82745700
C       -3.98294600       1.44426300       0.04324800
C       -3.62924900       0.48273300       0.96868100
S       -4.86922400      -0.08775300       2.06268800
O       -4.59331800      -1.51451900       2.48911700
O       -4.90874600       0.83749200       3.45165600
N       -6.39021200      -0.07724800       1.26293700
C       -6.22997300      -0.31021700      -0.16044400
C       -7.05279200       1.20374800       1.41271000
C       -2.33337300       0.00265000       1.01010000
26
Properties=species:S:1:pos:R:3 energy=-0.4155363861507536 pbc="T T T"
F       -4.81001700       3.54992200      -0.59977200
C       -4.12650700       2.39336400      -0.39958400
C       -4.74678000       1.19041700      -0.18419300
C       -3.98618100       0.06288100       0.01045900
C       -2.59010500       0.06543300       0.00248100
N       -1.92612300      -1.15553800       0.21411300
C       -0.53403700      -1.27766700       0.22810200
N        0.33811900      -0.25196900       0.04257900
C        1.66321100      -0.38591800       0.05901500
C        2.60347700       0.71449700      -0.14001900
C        3.97361200       0.44351500      -0.09956500
C        4.86372900       1.47495900      -0.28614900
N        4.49346000       2.74870200      -0.50871500
C        3.17183900       3.02806200      -0.55090500
C        2.25545500       2.01766900      -0.36789400
F        0.94882800       2.34767900      -0.41912200
N        2.17230500      -1.63563000       0.27654500
C        1.35081700      -2.68300400       0.46561200
C        1.88930400      -3.95541000       0.68698500
C        1.04700900      -5.02571800       0.88021300
C       -0.32193000      -4.86139000       0.85866200
C       -0.85072200      -3.61397300       0.64164100
C       -0.00515300      -2.54340500       0.44835000
C       -1.99556400       1.28391900      -0.21551000
C       -2.74080300       2.42711100      -0.41300400
F       -2.13724200       3.64149200      -0.63032500
36
Properties=species:S:1:pos:R:3 energy=-2.7025367481281015 pbc="T T T"
C       -3.30121300       3.38081800       1.68509300
C       -2.05595400       3.31969000       0.74405700
C       -0.88471600       3.63419700       1.60867200
C       -2.28524100       4.28509600      -0.29371800
N       -2.49082100       5.05923200      -1.13380900
C       -1.98636700       1.92449500       0.17957800
C       -1.79067100       1.61313500      -1.12903600
C       -1.80908700       0.28274000      -1.57608100
C       -2.02602500      -0.76587200      -0.72087000
N       -2.14329300      -2.11660300      -1.10252400
C       -3.39256800      -2.57431000      -1.71157400
O       -4.27922100      -1.69484900      -1.91915600
O       -3.54781400      -3.89779600      -2.02812600
C       -2.61439200      -4.88301200      -1.84922900
C       -1.36486800      -4.42570000      -1.22180800
C       -0.40790000      -5.37078400      -1.01086800
N        0.76951800      -4.96422600      -0.45423300
C        0.99417600      -3.67571300      -0.11958300
C        2.23246200      -3.39309900       0.36364600
C        2.54663900      -2.10138300       0.65870000
C        1.58743500      -1.09013800       0.45449700
C        2.09015600       0.26697100       0.66861200
C        1.49879400       1.28732500      -0.08107100
N        1.97582800       2.54798400      -0.02733800
C        3.03614600       2.89820200       0.73666200
C        3.51008900       4.22316600       0.72597400
C        4.60776900       4.54967600       1.49282000
C        5.23528300       3.57801800       2.26167300
C        4.72667700       2.28886800       2.23333500
C        3.63543600       1.92352000       1.48492000
C        3.15762200       0.61670600       1.44775200
C        0.32507500      -1.36831700      -0.03234800
C        0.05049500      -2.68969400      -0.31603500
C       -1.16764300      -3.09461400      -0.88517100
C       -2.22498900      -0.43170500       0.63241000
C       -2.20681900       0.85797700       1.06809400
32
Properties=species:S:1:pos:R:3 energy=-1.8836201802791224 pbc="T T T"
C        4.72587300       3.59705200      -3.47192300
N        3.93828900       3.86345700      -2.28990900
C        4.64565400       3.64860600      -1.06944200
C        4.72274200       2.15517800      -0.76273100
N        3.34747900       1.70297000      -0.66163000
C        3.10279000       0.50318900       0.08239200
C        1.81642300       0.00314600       0.22796700
C        1.57940700      -1.14580000       0.94061300
C        0.23363600      -1.69658000       1.11095000
N       -0.84631300      -1.08487400       0.56292300
C       -2.08821700      -1.57907100       0.71122300
N       -3.21624500      -0.96809000       0.15680400
C       -3.20800600       0.21368200      -0.61017300
C       -4.36482600       0.77101400      -1.13650900
C       -4.37313700       1.92051300      -1.88435900
C       -3.18455500       2.58534000      -2.14738500
F       -3.19513500       3.71992100      -2.88574900
C       -2.02450500       2.04506200      -1.63166300
F       -0.87674300       2.69436000      -1.89010400
C       -2.02615200       0.87447900      -0.87154000
C       -2.22032300      -2.73967300       1.44724100
C       -3.47231200      -3.27561000       1.62136000
C       -3.63110400      -4.43211900       2.35105900
C       -2.54616600      -5.07115600       2.91752400
C       -1.30261100      -4.55158000       2.75289800
C       -1.14783700      -3.38287900       2.01469400
N        0.06453000      -2.82567300       1.82131700
C        2.65941500      -1.79241000       1.51042300
C        3.93259800      -1.30867800       1.37355700
N        4.10102500      -0.18123300       0.66534900
C        2.24281200       2.38978200      -1.26108200
C        2.61151300       3.34767300      -2.34045700
30
Properties=species:S:1:pos:R:3 energy=-1.861147324427064 pbc="T T T"
O        2.40572900      -1.62996000       2.33660900
S        2.28455600      -1.26855700       0.87635500
O        2.62837600      -2.68416400       0.00411100
N        3.31657400       0.01110100       0.42950500
C        4.66480800      -0.19551600       0.01957900
C        5.13358600      -1.48621800      -0.01015500
C        6.42578800      -1.74905900      -0.39703900
C        7.23168300      -0.69373000      -0.75115300
C        6.76889600       0.60355900      -0.72393600
C        7.62248000       1.63302800      -1.09084000
C        7.14378400       2.93519100      -1.05902100
C        5.83206700       3.15021600      -0.66150500
C        5.00124800       2.12432600      -0.30217400
C        5.47019300       0.84570700      -0.33306900
C        0.59668700      -0.89520500       0.54548000
C       -0.42068200      -1.39153700       1.33566000
C       -1.74846000      -1.10333500       1.08290000
C       -2.09926600      -0.30750400       0.02880300
N       -3.42688600       0.03692000      -0.30110400
C       -4.49242200      -0.46805300       0.50620700
C       -5.83143100      -0.01068700       0.02254000
C       -5.98928000       0.80437400      -1.07873100
C       -7.26088600       1.19483100      -1.47781500
C       -8.40040900       0.79709100      -0.80971500
Cl      -9.99774700       1.31085500      -1.34298200
C       -8.23520200      -0.01799600       0.29080200
C       -6.96850900      -0.40963800       0.69203900
O       -6.79349400      -1.24134100       1.81429700
C       -1.09257300       0.19830300      -0.77322800
C        0.23079500      -0.09300400      -0.51573300
32
Properties=species:S:1:pos:R:3 energy=-0.4155363861507536 pbc="T T T"
C       -4.46937700       1.10484500       0.96253800
C       -5.23852700      -0.08663100       0.52814600
C       -6.63236200       0.00346700       0.44905100
C       -7.36236900      -1.11213900       0.09924100
F       -8.72623300      -1.03310300       0.01939500
C       -6.70068300      -2.30201400      -0.16739800
C       -5.32961000      -2.36647200      -0.08414500
C       -4.56090700      -1.24649400       0.26863100
S       -2.83649600      -1.44827700       0.27108300
O       -2.49788600      -2.93390900       0.41716900
O       -2.26917400      -0.81925100       1.55295300
N       -1.99149500      -0.76398600      -1.01127800
C       -1.89594900       0.55471600      -1.40240700
C       -2.94455200       1.30645200      -1.88208200
N       -2.80418300       2.57461100      -2.29431200
C       -1.61775500       3.20388500      -2.26667700
C       -0.54054100       2.51930000      -1.80442700
C       -0.65570100       1.21975700      -1.37603100
C        0.50854600       0.47206500      -0.87373400
O        0.40287200      -0.71888500      -0.48119000
N        1.79723700       1.05805200      -0.80975000
C        2.90281700       0.26443100      -0.30364800
N        4.15717500       0.63146100      -0.17053400
C        5.02899900      -0.20773000       0.30282400
C        6.45941200       0.16845500       0.46939600
C        7.33571700      -0.74415300       0.96923700
C        8.67435700      -0.44705400       1.14425500
C        9.15662100       0.80168200       0.80999400
C        8.25286000       1.71201900       0.30523200
C        6.91388500       1.43906400       0.12174300
C        4.57055100      -1.45663600       0.64213300
S        2.91275100      -1.34752800       0.25941500
35
Properties=species:S:1:pos:R:3 energy=-1.8836201802791224 pbc="T T T"
C       -8.94617200      -1.72322400       0.01812100
C       -7.77189400      -0.81243900       0.07531700
C       -7.49442900       0.07576700      -0.95008600
C       -6.41072100       0.92840300      -0.91597200
C       -5.56815300       0.91389400       0.15629500
S       -4.16421800       1.94489800       0.31411800
O       -4.49669700       3.24161900      -0.38560300
O       -3.93508900       2.21986600       1.77359300
N       -2.76167700       1.23156600      -0.33644100
C       -2.58136500       0.86142300      -1.68527300
C       -3.51382200       1.02497200      -2.66592200
N       -3.30379400       0.65865200      -3.94238200
C       -2.11186900       0.10314800      -4.26330100
C       -1.12826100      -0.09098000      -3.32705400
C       -1.36570000       0.29151300      -2.02776900
C       -0.34206700       0.09609100      -1.02325700
O       -0.54548900       0.44186400       0.17226800
N        0.90203700      -0.47834200      -1.33381900
C        1.91040400      -0.67219400      -0.35029700
C        1.74982400      -0.31719300       0.96684000
C        2.75627500      -0.52383500       1.88873800
C        3.96304500      -1.09664600       1.51621200
S        5.23169900      -1.35727700       2.67761600
O        6.01041300      -2.57982900       2.29078800
O        4.62292100      -1.61653600       4.04466600
N        6.30056800      -0.02321800       2.80699300
C        7.04521600       0.35702300       1.62631800
N        7.01063100      -0.20472700       0.42212700
C        7.75255900       0.27699200      -0.51621600
C        8.54734300       1.35039100      -0.23165300
S        8.17507000       1.61629000       1.41380300
C        4.10823800      -1.44741000       0.18988900
C        3.09719700      -1.23914000      -0.73308100
C       -5.82959000       0.03892500       1.18123700
C       -6.91243300      -0.81693900       1.15318800
25
Properties=species:S:1:pos:R:3 energy=-2.6720775406433925 pbc="T T T"
C       -6.68588900       1.42111800       0.47931000
C       -5.47378700       0.66231800       0.89053100
C       -5.25046400       0.29731900       2.18955700
C       -4.13372100      -0.40569800       2.58968900
C       -3.21803900      -0.74026300       1.60387200
C       -3.39203900      -0.39861800       0.28070300
N       -2.39644300      -0.78470400      -0.66989100
C       -2.58903200      -1.56514600      -1.76058600
N       -1.41608900      -1.69866100      -2.40152600
C       -0.45868700      -1.02440600      -1.75726900
C        0.88297000      -0.83483600      -1.98021800
C        1.57296300      -0.03911000      -1.05415100
C        2.99142000       0.19670300      -1.23710000
O        3.57006000      -0.31560900      -2.21871500
N        3.69251000       0.99685600      -0.30861800
C        2.94361800       1.55165100       0.80045900
C        3.47928200       0.95525800       2.10491100
C        4.23399000      -0.32226000       1.83170400
C        5.68579200       0.04019100       1.57982700
C        5.96079300       0.15729700       0.10481500
C        5.08511700       1.17012000      -0.57505200
C        0.93425500       0.51571300       0.01346500
C       -0.39813900       0.31806200       0.22087800
C       -1.09247000      -0.45655800      -0.67209100
C       -4.52797000       0.30326100      -0.05450300
21
Properties=species:S:1:pos:R:3 energy=-0.6505299773824591 pbc="T T T"
F       -6.35788500      -0.69106700       0.08571400
C       -5.06233200      -0.36870900      -0.13049400
C       -4.07164800      -1.04462900       0.53317600
C       -2.75631800      -0.68849500       0.28774500
C       -2.42329000       0.31036300      -0.59105000
N       -1.07758200       0.66176900      -0.83048000
C       -0.05015500      -0.02669700      -0.15341800
N       -0.32523800      -0.99256300       0.69900000
C        0.66564900      -1.64626600       1.34276100
C        1.98894600      -1.26971800       1.07949600
C        2.26661300      -0.26167800       0.18932100
C        3.65055100       0.10606300      -0.06260200
C        4.68210800      -0.54253700       0.57887200
C        5.96906800      -0.16566300       0.31321700
N        6.29087800       0.82596200      -0.55972200
C        5.28073800       1.43917900      -1.16818000
C        3.98263100       1.11640400      -0.95177700
N        1.23230700       0.34385200      -0.41361300
C       -3.42362600       0.99149900      -1.25995700
C       -4.72383800       0.63124600      -1.00996600
F       -5.73757700       1.27168200      -1.64308100
34
Properties=species:S:1:pos:R:3 energy=-0.4155363861507536 pbc="T T T"
O        0.80509100      -1.98081600      -1.25745000
C        0.78470900      -2.01152700      -0.00734600
N        1.83486700      -1.40961000       0.67633200
C        3.04780900      -0.91299200       0.07373100
N        3.65803400       0.24272900       0.21235600
C        4.88101500       0.41712100      -0.22909700
C        5.49513500       1.78611500      -0.22700600
C        4.75993600       2.91783500      -0.08194000
C        5.36990200       4.12542300      -0.17780100
C        6.72922800       4.27593000      -0.42847200
C        7.46167100       3.11428100      -0.56467200
C        6.84192800       1.88373900      -0.46194200
C        5.47847900      -0.66796300      -0.83319200
S        4.25145900      -1.85036800      -0.75133400
C       -0.30647000      -2.67955200       0.63224500
C       -0.10743900      -3.08065100       2.00594200
C       -1.05693700      -3.87882100       2.57515000
N       -2.15219300      -4.30099600       1.93670800
C       -2.36316000      -3.94894100       0.67399800
C       -1.41748000      -3.11799800       0.01635600
N       -1.79877300      -2.78694100      -1.33087100
S       -3.34305800      -2.05186600      -1.55214400
O       -3.80892300      -2.16582500      -2.94770700
O       -4.41889600      -2.91386800      -0.72179600
C       -3.45489100      -0.46414400      -0.87810400
C       -3.35852400      -0.06668400       0.40199600
C       -3.66303500       1.26630900       0.78192600
C       -4.07373900       2.19096600      -0.17384900
C       -4.42039600       3.59376000       0.18408700
F       -3.32020100       4.43827800       0.33917800
F       -5.25804600       4.09352700      -0.77133400
F       -5.04340800       3.67121700       1.46354000
C       -4.16705900       1.78592700      -1.46569800
C       -3.86663500       0.48640900      -1.82562100
30
Properties=species:S:1:pos:R:3 energy=-1.9066096985038217 pbc="T T T"
C        2.80884600      -0.16096600       3.28373600
O        2.54741400      -0.23103100       1.87711200
C        1.24197300      -0.22671200       1.42400600
C        0.19238800      -0.15581700       2.33669200
C       -1.10289000      -0.15248500       1.88378600
C       -1.43148300      -0.21679200       0.55395500
N       -2.76211200      -0.22490600       0.05854100
C       -3.90361500      -0.18916200       0.87254900
O       -3.72801500      -0.14447700       2.13031000
C       -5.27253900      -0.20022800       0.38441400
C       -6.36297400      -0.19807000       1.23421500
C       -6.12442400      -0.18556800       2.69638400
C       -7.65229200      -0.21029400       0.69276700
C       -7.87276700      -0.22355000      -0.66193800
C       -6.78697600      -0.22518200      -1.50352700
C       -5.52585100      -0.21353700      -0.96007500
C       -4.35711400      -0.21406100      -1.90736400
C       -0.39465700      -0.28676500      -0.34725400
C        0.94325900      -0.29206300       0.08555900
S        2.24214000      -0.39957100      -1.07428400
O        2.98317500      -1.69546900      -0.88015000
O        1.61595900      -0.45039500      -2.64269800
N        3.25724400       0.95806400      -0.93016800
C        4.66086200       0.88438900      -0.73929900
C        5.49788800       0.72153100      -1.81544300
C        6.87965400       0.65062000      -1.62565900
C        7.39807300       0.74377700      -0.36784900
Br       9.28809100       0.65336000      -0.01368900
C        6.53649500       0.90833900       0.70804900
C        5.18424800       0.97702100       0.51227500
31
Properties=species:S:1:pos:R:3 energy=-0.4155363861507536 pbc="T T T"
C       -9.68152600      -0.68043700      -0.35600100
C       -8.32146400      -0.56311800      -0.93226500
O       -8.20637900      -0.42050700      -2.16679000
N       -7.20128400      -0.61548600      -0.07532200
C       -7.25095500      -0.77914700       1.36360700
C       -6.03767200       0.01593700       1.77899100
C       -5.09794500      -0.14547200       0.64294400
C       -3.70764800       0.01581900       0.53309700
C       -3.03478500      -0.18540700      -0.64825400
C       -1.56277500      -0.00467300      -0.72434100
N       -0.77179600      -0.48954000       0.19346300
C        0.53355600      -0.30479600       0.08566300
N        1.57556100      -0.75572500       0.98535000
C        2.93158400      -0.43579900       0.66238700
O        3.14782900       0.21414700      -0.37577900
C        4.00585800      -0.90204300       1.59213700
C        5.33204600      -0.47656300       1.09049400
C        6.08657300      -1.25952800       0.23511600
C        7.31709900      -0.83944800      -0.21626800
C        7.82414700       0.38435500       0.18198200
C        7.08525900       1.17728400       1.03419300
C        5.85520100       0.73590300       1.47347600
O        7.79478400       2.35863800       1.29612800
C        9.11519700       2.09658900       0.86265600
O        9.01445500       1.07046700      -0.09909100
S        0.67000800       0.58685100      -1.36259100
C       -0.98884100       0.67633100      -1.75973900
C       -1.69481700       1.32101500      -2.92800500
C       -3.77040800      -0.55815200      -1.75112200
C       -5.14506800      -0.71973600      -1.65041200
C       -5.81579600      -0.51775900      -0.46658100
32
Properties=species:S:1:pos:R:3 energy=-0.4155363861507536 pbc="T T T"
O        0.03246800      -3.84988300      -0.87337900
S        0.29701100      -3.53536300       0.57326200
O       -0.12324600      -4.70895200       1.39881600
N        1.94466700      -3.11909500       0.84705100
C        2.60875000      -2.06532000       0.21111900
C        3.40053600      -1.22422500       0.96633600
C        4.08006200      -0.16610900       0.38959500
C        4.00160500       0.10071500      -0.96074300
C        4.73759600       1.24566000      -1.58129600
C        6.19697300       0.90835000      -1.79478800
C        6.95142300       0.83300400      -0.48816200
N        6.89651000       2.13936900       0.16578200
C        6.09684000       3.05048800      -0.62688400
C        4.69142300       2.47715200      -0.70250400
C        3.21133300      -0.73774000      -1.71829300
C        2.53049800      -1.79757600      -1.14161000
C       -0.68272700      -2.17688800       1.03594200
C       -1.02047800      -1.18612500       0.15055800
C       -1.81190700      -0.10437100       0.55561300
C       -2.27290500      -0.00360700       1.85027000