20
Properties=species:S:1:pos:R:3 energy=3.4011973816621555 pbc="T T T"
O        0.20150200       1.64812600       0.08980100
C       -0.30806300       0.49629100       0.00635200
C        0.58071700      -0.57886800      -0.00846100
C        2.00380800      -0.34339500       0.06956500
C        2.76778800      -1.11570300       0.91718800
C        4.14057200      -0.90439300       1.00664500
C        4.78548200       0.06534700       0.26825500
O        6.15528600       0.21313700       0.41405700
C        4.01283000       0.83292200      -0.57688600
C        2.64841400       0.63523300      -0.67685300
C        0.01869300      -1.83676900      -0.09985100
O       -1.29984200      -2.01306100      -0.16997600
C       -2.11558200      -0.99674200      -0.15484500
C       -3.49260000      -1.18842400      -0.22847400
C       -4.35726600      -0.11233300      -0.21249700
O       -5.71664400      -0.32089900      -0.28619000
C       -3.88975100       1.18543600      -0.12340300
C       -2.52202500       1.38292100      -0.04990200
O       -1.95063400       2.64995600       0.04239600
C       -1.66268600       0.30121500      -0.06641800
19
Properties=species:S:1:pos:R:3 energy=3.4011973816621555 pbc="T T T"
O       -0.01038900      -1.67729800      -0.95124100
C       -0.38982100      -0.60649100      -0.42134000
C        0.47727100       0.37141900       0.01884400
C        1.91268900       0.15889500      -0.13536500
C        2.79251300       0.43184000       0.88581700
C        4.16800100       0.22715800       0.73523900
C        4.65405900      -0.25794000      -0.46009500
O        6.00392200      -0.45204900      -0.58916400
C        3.78883800      -0.53110700      -1.47747600
C        2.43038300      -0.32487500      -1.31746200
C       -0.05998400       1.49976700       0.58217600
O       -1.34492500       1.68998300       0.72019500
C       -2.17649500       0.79038400       0.31648200
C       -3.53776400       1.00362400       0.46834800
C       -4.47154300       0.09696200       0.06490900
O       -5.81714500       0.36841000       0.24426900
C       -4.00924200      -1.07674600      -0.51759000
C       -2.66657200      -1.32583200      -0.68606300
C       -1.74379900      -0.38610600      -0.26628900
16
Properties=species:S:1:pos:R:3 energy=2.155244505095337 pbc="T T T"
N        4.28734500       0.64303600       0.94576400
C        2.97794800       0.21733600       0.51884000
C        1.86780400       1.01187800       0.75560700
C        0.63080100       0.56342100       0.32830000
N       -0.49193100       1.28186300       0.52364900
C       -1.67425200       0.83450200       0.10552900
C       -2.82541700       1.56689800       0.30363100
C       -4.05167700       1.12431900      -0.11893800
C       -4.14008900      -0.08022600      -0.75703100
C       -3.02254300      -0.83583600      -0.97245700
C       -1.79055500      -0.39146600      -0.54805800
O       -0.68933100      -1.08532400      -0.73406000
C        0.49817800      -0.71559500      -0.35534700
C        1.63564400      -1.46748800      -0.56570900
C        2.86001200      -0.99446100      -0.12766100
O        3.92806200      -1.67285700      -0.31087700
16
Properties=species:S:1:pos:R:3 energy=3.4011973816621555 pbc="T T T"
C        2.15170500      -0.49274000       0.83575000
C        3.11428600       0.26538700       0.02666900
C        4.47230700      -0.32990400      -0.13836500
C        2.83643100       1.38788800      -0.52644900
C        1.59944100       2.11845700      -0.48997400
N        0.51181400       1.51862400       0.18673000
C       -0.22631600       0.42987500      -0.35435300
N       -0.00057100      -0.12152600      -1.55438300
C       -0.72115400      -1.13614900      -2.04298300
N       -1.72092800      -1.63332900      -1.30350500
C       -2.02601400      -1.15182700      -0.09216800
N       -2.94259100      -1.43429300       0.85565900
C       -2.74423400      -0.58535000       1.87690300
N       -1.72177300       0.24335800       1.61910600
C       -1.25937200      -0.09124900       0.39823800
H       -1.32303000       1.01277700       2.21323700
13
Properties=species:S:1:pos:R:3 energy=2.5922651681085 pbc="T T T"
N       -2.37902900       0.84806800       1.57284300
C       -2.49847800       1.02631500       0.14652200
C       -1.91166000      -0.14864400      -0.61024200
O       -2.54411300      -1.33697400      -0.29457100
C       -0.43233100      -0.23746900      -0.35581800
C        0.26898800      -1.33811000      -0.76219700
C        1.62763700      -1.41789700      -0.52762400
C        2.26083700      -0.36864400       0.12259500
O        3.62653100      -0.39736900       0.38401100
C        1.56494600       0.75544600       0.54174200
O        2.23539000       1.78518200       1.18976600
C        0.20922800       0.79034000       0.28540700
H       -2.02794600       0.03975600      -1.69243300
33
Properties=species:S:1:pos:R:3 energy=3.4011973816621555 pbc="T T T"
O        2.59239900       2.29492800       0.83015900
C        3.29586100       1.34312900       1.52933800
C        3.12990000      -0.05593800       0.97316300
O        1.83517000      -0.48442200       0.97860000
C        1.13037700      -0.22640400      -0.18442600
O       -0.19745100      -0.57435300       0.04549000
C       -1.03615400       0.56309900      -0.00689300
O       -1.92197400       0.37217700      -1.02081300
C       -3.24455000       0.47367900      -0.71164300
C       -3.69110400       1.93155200      -0.53177500
O       -5.03074600       1.97750200      -0.22160100
C       -3.67637200      -0.36969000       0.46081600
O       -4.06241300      -1.62405400      -0.00045900
C       -2.57015200      -0.57391200       1.46686000
O       -3.07101200      -0.70681100       2.74870100
C       -1.67278600       0.66816900       1.36244800
O       -0.72385200       0.69078700       2.35305600
C        1.68085700      -0.90695700      -1.39123600
O        1.04441200      -2.10898400      -1.68748100
C        3.14989300      -1.22871400      -1.18952600
O        3.79084100      -1.28110400      -2.42500000
C        3.80319500      -0.13066300      -0.37433800
O        5.14215200      -0.44957900      -0.18566700
H        3.70785500      -0.72623900       1.67445200
H        1.16337200       0.86934200      -0.34847800
H       -0.44528600       1.47651700      -0.21966800
H       -3.82891600       0.11327800      -1.58634600
H       -4.54760700       0.10762700       0.93807100
H       -1.93557800      -1.42653700       1.14735600
H       -2.29014500       1.58568300       1.47527300
H        1.53547200      -0.24778400      -2.27071200
H        3.25938900      -2.19121000      -0.65798500
H        3.68495200       0.84588500      -0.88190700
21
Properties=species:S:1:pos:R:3 energy=1.81319474994812 pbc="T T T"
O        1.78467100      -2.56238700       0.70201300
C        1.23808700      -1.48206300       0.35503100
C       -0.11442400      -1.30682300       0.28300800
O       -0.92177600      -2.39736800       0.61634500
C       -0.63960100      -0.08993300      -0.10671100
C       -2.08809700       0.02897700      -0.16218500
C       -2.93969400      -1.00247500       0.15199100
C       -4.31605000      -0.81202100       0.07489300
C       -4.86233600       0.38948700      -0.31023000
O       -6.21889600       0.63235900      -0.40358900
C       -3.99483400       1.41288700      -0.62167600
C       -2.62754700       1.23247300      -0.54785000
O        0.14636000       0.91199500      -0.41241700
C        1.46123100       0.78215100      -0.35516100
C        2.29797900       1.84056600      -0.67802100
C        3.67377400       1.74754600      -0.63160200
O        4.48087700       2.84800500      -0.96807500
C        4.22181000       0.54204600      -0.24518400
C        3.43318800      -0.54083900       0.08598400
O        3.94381000      -1.76509700       0.47784500
C        2.04146900      -0.40948700       0.02729400
21
Properties=species:S:1:pos:R:3 energy=3.4011973816621555 pbc="T T T"
O       -2.46215600      -2.05127200       1.58228000
C       -1.76719500      -1.19750700       0.97263000
C       -0.38302300      -1.29812300       0.91465200
C        0.37404700      -0.37169700       0.25285200
C        1.84072300      -0.51388500       0.21425700
C        2.43452100      -1.58397100       0.84865400
C        3.82655700      -1.71766800       0.81122200
C        4.63540200      -0.81450600       0.15978600
O        6.00911700      -1.01714400       0.16823900
C        4.02932100       0.25155900      -0.47094400
O        4.85583300       1.15467800      -1.12391700
C        2.64957900       0.37472300      -0.42784100
O       -0.23217300       0.62791400      -0.33521000
C       -1.53760800       0.81197800      -0.33778100
C       -2.08081900       1.90050200      -0.98850000
C       -3.44011400       2.06971100      -0.97675800
O       -4.05092000       3.15907000      -1.62202900
C       -4.20870900       1.14658000      -0.31605200
C       -3.68203600       0.05472600       0.33827000
O       -4.49304000      -0.87253000       1.00538200
C       -2.31730600      -0.11313700       0.32518400
16
Properties=species:S:1:pos:R:3 energy=3.4011973816621555 pbc="T T T"
N        2.52546100      -1.10410000      -0.57920900
C        2.37803200       0.30681800      -0.67970800
C        1.15982000       0.73951800      -1.44884400
C       -0.09298300       0.24381500      -0.82390700
C       -0.74105000       1.00114900       0.12457000
C       -1.90597600       0.55995000       0.71783400
Br      -2.78804100       1.63144800       2.03389800
C       -2.47328700      -0.65450700       0.39028300
O       -3.65235700      -1.08114600       1.00303000
C       -1.82301300      -1.41469700      -0.56159300
Br      -2.60773500      -3.10537000      -1.02133100
C       -0.65810100      -0.96788300      -1.15138800
C        2.44649500       0.90578500       0.66685000
O        2.34038600       2.14263500       0.82415500
O        2.62871000       0.10444000       1.76764700
H        3.26363900       0.69214300      -1.26228800
26
Properties=species:S:1:pos:R:3 energy=3.4011973816621555 pbc="T T T"
O        1.81158400       0.78139000      -1.15711100
C        2.14107900      -0.18890900      -1.87265000
C        3.25712500      -0.13674700      -2.83188000
C        3.99130200       1.16933100      -2.83874900
C        4.61987000       1.51985800      -1.54608800
C        5.91615400       1.06764600      -1.29923300
C        6.52700900       1.38935500      -0.10752900
C        5.92044000       2.14641400       0.87374200
C        4.63511900       2.57749500       0.59416700
C        4.00283800       2.27072100      -0.58661000
N        1.34916300      -1.37837300      -1.69743800
C        0.27760700      -1.40905000      -0.76790600
C       -0.44639800      -2.57664600      -0.64203900
C       -1.49250500      -2.66850200       0.23836800
C       -1.82836500      -1.59392600       1.00449700
S       -3.17309300      -1.73524100       2.12630400
O       -3.26475800      -3.17724200       2.54120700
O       -2.87576700      -0.94942900       3.38217900
N       -4.65710400      -1.29707500       1.41902400
C       -4.90557500       0.03526100       0.90519100
N       -4.07585700       1.07295200       0.89775500
C       -4.47620400       2.19214000       0.39258800
C       -5.74099900       2.26185800      -0.11478500
S       -6.30310200       0.67404600       0.16815200
C       -1.12796900      -0.42997800       0.89779900
C       -0.08159500      -0.32925900       0.02104300
24
Properties=species:S:1:pos:R:3 energy=1.8082887711792655 pbc="T T T"
C        3.92877800       2.96342900       0.41478900
C        3.80655900       2.36564700      -0.95555900
O        2.92784700       1.26863800      -0.88297200
C        3.23135900       0.18690300      -0.04670500
O        4.31069800       0.27287500       0.60805300
C        2.36217200      -0.96898700       0.06681800
C        2.71731000      -1.94455900       0.87424400
C        3.99849500      -1.86837400       1.66672800
N        1.93047300      -3.11760900       1.05171400
C        0.71840600      -3.21913100       0.31935700
O       -0.26935300      -3.88496500       0.72800200
C        0.68534000      -2.47431600      -0.98971700
C        1.12173600      -1.05825500      -0.69133500
C        0.02360300      -0.22493200      -0.17936500
O        0.18462900       0.49178700       0.83338700
N       -1.21736100      -0.23395600      -0.83363100
C       -2.34330100       0.51506100      -0.44538200
C       -3.49596100       0.40041400      -1.19085700
C       -4.65035900       1.10845000      -0.87048200
Cl      -6.05590300       0.88764100      -1.88451900
C       -4.60528200       1.93005500       0.21820800
C       -3.47948400       2.08443800       1.00129600
Cl      -3.47265700       3.15900000       2.39818300
C       -2.35774200       1.36074500       0.64371200
30
Properties=species:S:1:pos:R:3 energy=3.4011973816621555 pbc="T T T"
O        0.81201500      -1.43565700       1.46492200
C        1.10773600      -0.71968000       0.47578300
N        0.06877400      -0.33902100      -0.39218900
C       -1.28924000      -0.72177500      -0.20591400
C       -2.25068700      -0.31264900      -1.10683400
C       -3.59338500      -0.66401800      -0.96214300
C       -4.00520200      -1.43989700       0.09793100
S       -5.66444600      -1.91977200       0.34588200
O       -5.68708400      -3.17372700       1.13781300
O       -6.33432300      -2.04884900      -0.98035700
N       -6.40248900      -0.67293000       1.30925900
C       -6.44381200       0.65215500       0.72898900
N       -6.95690900       1.73981600       1.28905500
C       -6.92092900       2.85723900       0.64530400
C       -6.35094400       2.87226700      -0.59641500
S       -5.88789200       1.23830200      -0.77136600
C       -3.05375400      -1.85604400       1.00646900
C       -1.72484200      -1.49835200       0.84830700
C        2.50652300      -0.30739500       0.25746300
C        3.47212500      -0.73511000       1.13840700
C        4.78389300      -0.35954600       0.95170200
C        5.20428600       0.44055400      -0.09126500
C        6.59820400       0.81946800      -0.26128000
C        7.37977800       0.97484700       0.85421600
C        8.69697300       1.33063500       0.74807000
C        9.22725400       1.53144700      -0.50815400
C        8.47097300       1.38456900      -1.66255900
C        7.15325100       1.02582700      -1.49945400
C        4.19954400       0.85338600      -0.96144100
C        2.88461000       0.48391100      -0.78431800
34
Properties=species:S:1:pos:R:3 energy=3.4011973816621555 pbc="T T T"
O        0.90288100       0.06538600      -1.34915200
C        0.93452600       0.50323700      -0.16052500
N       -0.28006400       0.83508000       0.45129400
C       -1.49710600       0.67556800      -0.26302100
C       -2.69927500       1.01143100       0.36243200
C       -3.90414800       0.86709700      -0.30806100
C       -3.96135300       0.39252300      -1.60155800
S       -5.42619500       0.18551500      -2.50176300
O       -5.25595100       0.38614300      -3.96990000
O       -6.45485300       1.14422800      -1.95957400
N       -6.01957900      -1.43143300      -2.21120300
C       -6.34372400      -1.70730000      -0.82965500
N       -6.81023700      -2.85705200      -0.35640900
C       -7.05616500      -2.95855400       0.90767200
C       -6.82456400      -1.87449600       1.70476600
S       -6.25091900      -0.73706400       0.56719400
C       -2.76042600       0.05961800      -2.21932500
C       -1.57375200       0.20853500      -1.54071300
C        2.23375800       0.62333500       0.46667100
C        3.40698200       0.28591900      -0.16978300
C        4.63667900       0.40614300       0.44160700
C        5.89044300       0.05770700      -0.20575700
C        5.80939800      -0.41802700      -1.50824200
C        6.91069000      -0.78120500      -2.23095300
C        8.15071600      -0.66388500      -1.62485700
C        8.23849200      -0.18983800      -0.32535000
C        7.10964000       0.16959500       0.38082200
N        4.65291100       0.87064300       1.69856400
C        3.52911400       1.22073000       2.38074200
C        3.58646900       1.69395900       3.67084900
C        2.45055400       2.04837100       4.36186200
C        1.23240500       1.92305000       3.73941700
C        1.14435100       1.45103600       2.44542300
C        2.29830100       1.09583400       1.75648700
16
Properties=species:S:1:pos:R:3 energy=3.4011973816621555 pbc="T T T"
C       -5.10630200      -0.70078000       0.08535300
C       -4.23775000      -0.84769600      -1.16148600
C       -3.57811000       0.51921700      -1.36459900
C       -2.69784100       0.45040100      -2.58795100
O       -1.72010800      -0.54080900      -2.37793200
C       -0.85450400      -0.36681600      -1.28320700
C       -0.95336700       0.72403600      -0.44832900
C       -0.06962700       0.84645000       0.62162100
C        0.89622000      -0.10719400       0.85119400
C        1.82959800       0.03299500       1.99074100
C        3.03708200       0.78466400       1.56613800
O        3.17085800       1.20173900       0.40751400
N        4.04245500       1.01640700       2.52502800
O        5.18937500       1.68588200       2.26990700
C        0.95224900      -1.17661600      -0.01190200
C        0.09977200      -1.33878000      -1.08209000
20
Properties=species:S:1:pos:R:3 energy=1.8309801823813363 pbc="T T T"
C        4.95777500       0.94548200      -0.45926700
C        5.11342300      -0.54188700      -0.38808900
N        3.88625700      -1.28106900      -0.29640800
C        3.95705800      -2.71624300      -0.22426300
C        2.59266300      -3.31253200      -0.13415800
C        2.65070300      -0.62357800      -0.27755200
C        2.62455800       0.75379200      -0.34865500
C        1.43724700       1.44999500      -0.33389700
C        0.21324200       0.81505600      -0.24774500
N       -0.94485900       1.60512900      -0.23915200
C       -2.26627500       1.08604800      -0.15494900
N       -2.47260400      -0.23132800      -0.07707700
C       -3.68675200      -0.77713700       0.00386600
Cl      -3.95661600      -2.51069900       0.10629400
N       -4.75478400       0.03803900       0.00725500
C       -4.60407200       1.38238700      -0.06962900
C       -3.35134200       1.93093400      -0.15238200
Br      -3.08826100       3.82105600      -0.26264100
C        0.25899500      -0.55772200      -0.17773100
C        1.43364200      -1.27572300      -0.19079800
32
Properties=species:S:1:pos:R:3 energy=1.8562979903656263 pbc="T T T"
C       -2.49449100      -1.06424000       3.96428700
C       -2.85809100      -1.32789000       2.55097800
N       -4.05683300      -1.74569700       2.14295600
N       -4.06571100      -1.88728900       0.83555700
C       -5.19123600      -2.32392000       0.03482300
C       -6.02269500      -1.18357600      -0.40526300
C       -7.07252500      -0.74038600       0.35799600
C       -7.87024300       0.33659100      -0.04161200
C       -7.56743900       0.95203000      -1.24536900
Cl      -8.58930400       2.30583000      -1.72312600
C       -6.52806400       0.52645200      -2.01849000
C       -5.75140900      -0.55157000      -1.59042000
C       -2.83651900      -1.55128800       0.38353800
C       -2.45087800      -1.58262800      -1.04625200
C       -2.02639200      -1.18868700       1.41498900
N       -0.70295100      -0.76029900       1.55572700
C        0.27487200      -0.55673400       0.59609500
O       -0.01586700      -0.77507300      -0.60464400
C        1.64085100      -0.09218700       0.95217500
C        2.65228200       0.12793700       0.04955300
C        3.76943300       0.55408500       0.77601300
C        5.07303900       0.90264600       0.22331700
C        6.08552200       1.30518100       1.03531300
C        7.33236500       1.64171500       0.53633700
C        7.58873600       1.57643300      -0.83262200
C        6.55923700       1.16765500      -1.65334100
C        5.30540700       0.83137600      -1.13141000
O        7.06218000       1.18743300      -2.94668000
C        8.48379700       1.29816500      -2.86622700
O        8.72898100       1.85366900      -1.57640700
O        3.39082200       0.56886700       2.02902600
N        2.15312200       0.19540200       2.15330900
31
Properties=species:S:1:pos:R:3 energy=1.8718021769015913 pbc="T T T"
C        5.30328000       3.86964500      -1.12202600
C        5.46219200       2.46998800      -0.61579900
C        4.32428100       1.72587700      -0.38600000
C        4.39082200       0.43580700       0.07801700
C        5.61819000      -0.14149400       0.32418900
N        5.69517300      -1.46532500       0.80107300
S        4.70651400      -2.66991700       0.06266400
O        5.04700200      -2.81767300      -1.39128000
O        4.99985600      -3.98287200       0.76209300
C        3.02435800      -2.24135200       0.28667000
C        2.32510200      -2.67108500       1.39883300
C        0.99951500      -2.33269400       1.57266600
C        0.30509000      -1.55352100       0.65388600
C       -1.08893200      -1.22245200       0.87829900
O       -1.70262700      -1.61949200       1.88732700
N       -1.76529000      -0.42956700      -0.07309200
C       -3.15898900      -0.12120000       0.18918500
N       -3.97974100       0.59576500      -0.55411700
C       -5.20815300       0.77849900      -0.17363700
C       -6.18376300       1.57345100      -0.96112500
C       -5.75492200       2.14356000      -2.15678700
C       -6.66427600       2.88381000      -2.88964900
C       -7.95511600       3.04378800      -2.43627700
C       -8.34405800       2.47254800      -1.26102000
C       -7.47065800       1.73661300      -0.51529600
C       -5.58052400       0.19377600       1.01508700
S       -4.14099100      -0.57784300       1.50402800
C        1.01197100      -1.13062600      -0.45107700
C        2.33829500      -1.46797400      -0.62706900
C        6.76472600       0.61456100       0.09038900
C        6.68167600       1.90740000      -0.37514800
20
Properties=species:S:1:pos:R:3 energy=1.8718021769015913 pbc="T T T"
Cl       3.31093700      -2.27794400      -0.66272900
C        3.81518900      -0.60751900      -0.33807300
C        4.76977200       0.06726100      -1.07878200
C        4.98896400       1.41774500      -0.77780900
C        4.27800400       2.09547400       0.23000300
C        3.32451000       1.37067100       0.95738700
C        3.11994900       0.08583200       0.67905100
C        2.31040500      -0.87217900       1.52773500
S        1.12009400      -1.69129300       0.51441300
C       -0.46687100      -0.93592700       0.30959200
N       -1.60393400      -1.64222200       0.74213600
C       -2.68478500      -0.95010600       0.49108700
N       -3.99660700      -1.20409900       0.72614500
C       -4.93590500      -0.31275700       0.38291500
C       -4.58850400       0.91343300      -0.22693600
Br      -5.96933200       2.09205900      -0.72846500
C       -3.26757900       1.11708000      -0.43883300
C       -2.27746300       0.23571200      -0.10717000
N       -0.94558200       0.17568700      -0.18329500
H       -0.30126100       0.92309500      -0.58328000
21
Properties=species:S:1:pos:R:3 energy=1.8870696490323797 pbc="T T T"
N       -4.75620800       2.74030400      -0.64719400
C       -4.40209500       1.60696300      -0.53649100
C       -3.88562800       0.28899200      -0.42900600
C       -4.46973400      -0.83969900      -1.04290100
C       -3.86158800      -2.07070100      -1.05168100
C       -2.68104100      -2.21883100      -0.45924500
C       -2.01748200      -1.08646200       0.17521700
C       -2.61742400       0.06510300       0.16491000
C       -2.18606400       1.24341300       0.99358300
S       -0.73330900       2.02616300       0.57271700
C        0.69481900       1.12516300       0.30623900
N        1.17133100       0.66335600      -0.88717400
C        2.31194900       0.03061900      -0.74176800
N        3.15277500      -0.63180800      -1.51856300
C        4.22586300      -1.24867000      -1.08527600
C        4.51494300      -1.16886100       0.29203200
Br       6.10354700      -1.84841700       1.08352200
C        3.71712300      -0.52545000       1.09343800
C        2.53312300       0.14093200       0.65672400
N        1.62075300       0.75857800       1.25147100
H        1.56434800       0.94931100       2.26502400
21
Properties=species:S:1:pos:R:3 energy=1.8870696490323797 pbc="T T T"
N       -0.38144100       1.28750400       0.52748900
C       -0.33601900      -0.26155800       0.13084500
C        0.86919400      -0.59963700       0.16750500
C        2.26651700      -0.99164200       0.21000400
O        2.73295900      -2.10708800       0.13250600
N        3.21599500       0.14312100       0.37544300
C        2.74331800       1.49704900       0.47993100
C        3.46505700       2.32832000      -0.54314700
C        4.94635000       2.15127800      -0.41649100
C        5.34715900       1.13597600       0.58962600
C        4.59331400      -0.17054800       0.41565000
S        0.14991700      -2.42727500      -0.35399200
C       -1.45313700      -2.02335100      -0.41290900
S       -2.75600100      -2.99866700      -0.78641300
N       -1.47442400      -0.74264700      -0.10170000
C       -2.75813500      -0.05128600      -0.05786500
C       -3.70199300      -0.25209200      -1.02137900
C       -4.93187000       0.42508500      -0.99201400
C       -5.20890400       1.29885700       0.00724300
C       -4.27104700       1.52564700       1.00027000
C       -3.05681000       0.83295400       0.93882200
19
Properties=species:S:1:pos:R:3 energy=1.8213182714695995 pbc="T T T"
O        6.93168800       1.25020100      -0.63966500
C        6.46450100      -0.01685100      -0.29909800
C        4.95576500      -0.00601500      -0.30848200
C        4.13725400       1.04967900      -0.59777800
C        2.82395400       0.84782000      -0.54874500
C        2.38292300      -0.39733400      -0.21354500
C        0.99679200      -0.89052500      -0.08594200
C        0.60310000      -2.15218500       0.25383600
C       -0.77768800      -2.13014300       0.24201400
C       -1.15566000      -0.85507400      -0.10466300
C       -2.52254600      -0.34024000      -0.24979300
C       -3.68050500      -1.03805800      -0.06590400
C       -4.82772200      -0.39477200      -0.24486200
C       -4.77911000       0.92262900      -0.60113300
C       -5.92941100       1.85786100      -0.85909700
O       -6.31756100       2.50492700       0.29545300
S       -3.09371600       1.20707700      -0.67091900
O       -0.05013700      -0.16886500      -0.28568600
S        3.83808100      -1.25013400       0.02354500
25
Properties=species:S:1:pos:R:3 energy=3.4011973816621555 pbc="T T T"
O       -2.49346400      -2.63751600       0.00494500
C       -3.03474300      -1.52174200       0.28689900
C       -4.48603400      -1.40131700       0.29876800
C       -5.07031500      -0.16004100      -0.22271800
C       -5.11120700       0.93815500       0.65532100
C       -5.64867500       2.12864200       0.28632400
C       -6.18475800       2.32234600      -0.99038300
C       -6.14862900       1.24226800      -1.86211100
C       -5.59861500       0.00785400      -1.49668000
N       -2.16048300      -0.40610600       0.59225600
C       -0.74574100      -0.60328100       0.58652200
C        0.06180000       0.42872800       1.10115800
C        1.44472900       0.27163300       1.18662400
C        2.06503600      -0.89523300       0.76238700
S        3.77726800      -1.14773400       0.96747800
O        4.07515400      -1.67760500       2.33706300
O        4.15881000      -2.18475700      -0.09635300
N        4.74073900       0.21617000       0.74748800
C        4.87170600       0.97375200      -0.44007600
N        4.32998700       0.86291000      -1.64832900
C        4.64242200       1.72667700      -2.55521600
C        5.52242700       2.73816900      -2.24856300
S        5.87659900       2.39577700      -0.63407100
C        1.24144400      -1.87793900       0.26229200
C       -0.12545700      -1.73981000       0.17476400
31
Properties=species:S:1:pos:R:3 energy=1.791759469228055 pbc="T T T"
C       -4.38272500      -4.65765700       0.64992700
O       -4.09199000      -3.27796900       0.77251300
C       -2.79546100      -2.83920400       0.54152300
C       -1.80224100      -3.74670300       0.19531300
C       -0.52385100      -3.28118000      -0.02796200
C       -0.19764200      -1.94588500       0.08063300
N        1.14570900      -1.49508800      -0.15926800
C        1.53144000      -0.15112400      -0.06278600
O        0.65953400       0.70531900       0.24939200
C        2.89708700       0.31556700      -0.30554600
N        3.90308600      -0.51065300      -0.64367700
C        5.03460700       0.18018900      -0.80341500
C        6.35649400      -0.38372400      -1.17669000
C        4.75253100       1.50833000      -0.55932100
C        5.74200400       2.55648700      -0.63853800
C        6.53209700       2.93420300       0.54908400
O        5.92864000       3.14659500      -1.72231500
C        3.41827200       1.56702600      -0.25206200
C        2.66256100       2.79098500       0.08409400
C       -1.21925300      -1.08613800       0.42670800
C       -2.50191500      -1.48770300       0.65964600
S       -3.79858200      -0.41268300       1.09662300
O       -4.87711000      -0.56640700       0.04211500
O       -4.39322700      -0.80972800       2.39736500
N       -3.28091400       1.22167200       1.20298700
C       -2.78379300       1.69634500      -0.07014700
C       -3.89423900       1.73991800      -1.10452600
C       -5.04080300       2.57866400      -0.53817800
C       -4.57656000       3.18617000       0.77745500
C       -4.25734300       2.08496900       1.78560300
H        3.85358800      -1.56058900      -0.77551900