21
Properties=species:S:1:pos:R:3 energy=0.1807187284035936 pbc="T T T"
O       -1.81269100      -2.64791500       0.55954800
C       -1.27776200      -1.51492600       0.37093200
C        0.07948700      -1.35606700       0.22474200
O        0.89761900      -2.47554900       0.28535000
C        0.62041400      -0.10826200       0.02151400
C        2.09048100       0.01279300      -0.13058500
C        2.89726100      -1.08726300      -0.07129100
C        4.26105200      -0.91629400      -0.21956800
C        4.84055700       0.31103400      -0.42389100
O        6.21975600       0.40402800      -0.56406300
C        4.01153400       1.41506600      -0.48159500
C        2.64685300       1.24553500      -0.33341200
O       -0.12588900       0.94828600      -0.03809700
C       -1.43268900       0.84181600       0.09697100
C       -2.22327100       1.99654800       0.02947700
C       -3.58755800       1.89106000       0.16979200
O       -4.44237000       2.98526500       0.11570400
C       -4.18317900       0.65522000       0.37666400
C       -3.43805500      -0.49584300       0.44795300
O       -3.98842600      -1.74845800       0.65265000
C       -2.05312500      -0.35607400       0.30151400
16
Properties=species:S:1:pos:R:3 energy=0.2671043538355218 pbc="T T T"
N        4.03322100       1.59674900       1.08151500
C        2.83344700       0.88567400       0.71896200
C        1.61673100       1.52767800       0.61143900
C        0.49367000       0.79032200       0.25836500
N       -0.72595900       1.32946900       0.13066000
C       -1.78578500       0.56053900      -0.21648200
C       -3.05369300       1.08801400      -0.35554500
C       -4.13756800       0.31074500      -0.70882700
C       -4.00137900      -1.04105600      -0.94107400
C       -2.73992400      -1.58093100      -0.80559900
C       -1.65463700      -0.79337600      -0.45008600
O       -0.45533900      -1.33541900      -0.32677700
C        0.60955800      -0.64275600       0.00677000
C        1.86562000      -1.19764400       0.13835800
C        2.98126000      -0.46629400       0.48887900
O        4.12077600      -1.03171500       0.59642100
13
Properties=species:S:1:pos:R:3 energy=0.4305459571527297 pbc="T T T"
N        2.30481200       0.66440500      -1.96722700
C        2.63944900       0.68332500      -0.57425700
C        1.95548600      -0.38831100       0.22073800
O        2.25626200      -1.66926200      -0.20446400
C        0.48486300      -0.24094500       0.23006300
C       -0.27609500      -1.25484800       0.76892000
C       -1.66119700      -1.19060700       0.81422500
C       -2.33306400      -0.09554300       0.31503400
O       -3.72353500       0.00073100       0.34495500
C       -1.56605100       0.91773000      -0.22385500
O       -2.24100200       2.02187500      -0.72732600
C       -0.18305300       0.85489900      -0.26973400
H        2.34312700      -0.30345000       1.27292900
46
Properties=species:S:1:pos:R:3 energy=1.0 pbc="T T T"
C        2.56587800      -2.67655600      -4.20806000
O        2.52011200      -1.97176000      -3.00409500
C        1.52522000      -2.18284200      -2.04643400
C        0.57787100      -3.13962600      -2.34504100
C       -0.40468800      -3.37205600      -1.43271800
C       -0.45358500      -2.65440100      -0.22229900
C        0.48020800      -1.73789200       0.02643300
C        1.53020400      -1.43946800      -0.85952400
O        2.45279200      -0.53747500      -0.59503200
C        2.93737400       0.56225100      -0.06667600
C        3.87823900       0.49890500       0.98141200
O        4.34444900      -0.70176900       1.52190800
C        4.44156900       1.61984000       1.58533300
O        5.36159200       1.49259600       2.61189400
C        5.88818500       2.64132800       3.22170500
C        4.09805800       2.89169300       1.17560800
C        3.19262700       2.99180600       0.16491500
C        2.62987500       1.84469200      -0.43461000
C        1.67044200       2.27151400      -1.51056900
C        0.75756600       3.28268200      -0.91075700
C       -0.49865400       2.85898800      -0.33955100
C       -1.08146900       1.68106300      -0.69137400
C       -2.28280100       1.31258500      -0.12934400
C       -2.91637700       2.14201400       0.80435700
C       -2.30527400       3.32198000       1.13796200
C       -1.09653900       3.69149400       0.57464300
O       -4.14559800       1.72856100       1.35912500
C       -4.42406600       0.36092500       1.39896300
C       -3.59006200      -0.47837800       0.71288000
C       -3.76666900      -1.84005800       0.68125300
C       -4.84780400      -2.32613100       1.39030800
C       -5.72246500      -1.49887400       2.10149800
C       -5.48911700      -0.13950500       2.09291100
O       -6.37080700       0.66657900       2.80891800
C       -2.86635800      -2.74045300      -0.06162300
C       -1.56724900      -3.03941000       0.67096500
N       -1.49864100      -4.48460500       0.93893300
C       -2.66293100      -4.91908000       1.68632000
C       -1.38411800      -5.25129000      -0.28621200
C       -1.49515900      -4.38238300      -1.54432300
N        2.61430000       3.00435200      -2.42883600
C        2.07146800       3.00272400      -3.76564500
C        2.83168100       4.33308600      -1.89334100
C        2.81387400       4.32657900      -0.38306600
H        1.24249000       1.48629600      -2.09332200
H       -1.55564000      -2.50052000       1.60421000
33
Properties=species:S:1:pos:R:3 energy=0.138217000691085 pbc="T T T"
C        8.56695300       0.47812600      -1.46951700
C        8.00487100      -0.54626800      -0.52773700
O        6.58193900      -0.37994400      -0.41647900
C        5.82633300      -1.20898600       0.39815300
O        6.44613000      -2.09985600       1.02375100
N        4.42665900      -1.09221800       0.54617700
C        3.63085500      -0.09712300      -0.13454700
C        2.35450900       0.10377500       0.68040800
N        1.59799100      -1.11188100       0.78887800
C        0.58561700      -1.13119800      -0.27820800
C       -0.32878300       0.03268700      -0.14687200
N       -0.09727900       1.21828200      -0.74137700
C       -1.08328100       2.08568900      -0.45249700
C       -1.95616300       1.37368400       0.36435100
C       -3.07727000       2.04703400       0.81516600
O       -3.91072500       1.46825400       1.55848000
N       -3.28941000       3.31940000       0.46828100
C       -4.48824800       3.98173500       0.97184100
C       -2.41757300       3.96484200      -0.32334200
O       -2.61735700       5.16085100      -0.64937400
N       -1.32475300       3.36347500      -0.78307800
C       -0.38763900       4.09929300      -1.64971700
N       -1.48708100       0.13373400       0.54023200
C       -2.08513800      -0.91178800       1.29882600
C       -2.97179800      -1.73311500       0.44156200
C       -4.31087200      -1.46289400       0.28223100
C       -5.13774600      -2.21226300      -0.50479800
C       -4.61074800      -3.28696300      -1.16991300
C       -3.27967300      -3.61480500      -1.05605300
C       -2.79245800      -4.78938200      -1.80701800
C       -2.48738400      -2.83505900      -0.25555400
C        2.38281800      -2.30503200       0.79090100
C        3.73670500      -2.01208600       1.42415800
21
Properties=species:S:1:pos:R:3 energy=0.1371803731859018 pbc="T T T"
C        5.72622000       1.70913100      -0.48690900
C        4.29789600       1.30640200      -0.39265300
C        3.74420000       0.33543600      -1.19965100
C        2.39753300      -0.00602000      -1.07119100
C        1.56946600       0.59646800      -0.15114600
C        0.16289500       0.23296100      -0.02408800
N       -0.86185200       1.12201400       0.07755100
N       -2.01459400       0.52443800       0.18099100
C       -3.29107300       1.19006800       0.30453300
C       -4.37383000       0.44014400      -0.43207300
C       -3.18608300       2.55882100      -0.28537100
C       -3.72338000       1.32279700       1.75043500
C       -1.77744900      -0.79964500       0.14991800
N       -2.61168700      -1.85096600       0.22130500
C       -2.07900400      -3.10675100       0.16401600
N       -0.76207800      -3.31919600       0.03999400
C        0.09328800      -2.26832500      -0.03338600
N        1.49301500      -2.47556700      -0.16278800
C       -0.42749700      -0.99761000       0.02273800
C        2.14574800       1.57419800       0.65476800
C        3.47826700       1.91120000       0.52676000
29
Properties=species:S:1:pos:R:3 energy=0.1337249481686247 pbc="T T T"
C        6.45291500      -0.38114200       0.17110400
O        6.02081700      -0.08257200       1.45791300
C        5.40317500       1.16823100       1.46424500
C        4.21244000       1.22539000       0.55315800
N        4.58583500       0.94444300      -0.82679900
S        3.12612400       1.04125200      -1.77430700
O        3.41600700       0.89405100      -3.22888500
O        2.51681200       2.38981300      -1.46980500
C        1.98717300      -0.16975000      -1.21881300
C        0.73848700       0.15598900      -0.72709500
C       -0.15491900      -0.80191500      -0.29079800
C       -1.47669600      -0.48503800       0.23164800
N       -1.93590100      -1.07515600       1.34571300
N       -3.15315500      -0.79077400       1.83669500
C       -3.76270500      -1.28469200       2.93005500
C       -3.16080500      -2.30301600       3.85626400
N       -4.96416700      -0.69441800       3.00234600
N       -5.09257900       0.14465600       1.97656800
C       -3.96696300       0.09102700       1.24373700
C       -3.55833600       0.73086600       0.09958800
C       -4.34399200       1.64643900      -0.55848000
C       -3.84780400       2.23669500      -1.69916100
C       -2.60040700       1.94019000      -2.19553700
C       -1.81612500       1.02458200      -1.53643800
C       -2.29398700       0.42918200      -0.40200400
C        0.20751600      -2.15217800      -0.34444400
C        1.45370500      -2.48616900      -0.83454700
C        2.33147200      -1.50334200      -1.26616300
C        3.67606300      -1.85264600      -1.79575700
22
Properties=species:S:1:pos:R:3 energy=0.1323427781617139 pbc="T T T"
O        1.59156300      -3.04926700      -0.87218100
C        1.35666700      -2.17776700       0.18686600
C        2.50153500      -1.20900100       0.35905200
C        2.69142000      -0.37509700      -0.91434600
N        3.80591400       0.53207800      -0.67814600
C        4.99779200      -0.30676500      -0.59444500
C        5.76535300       0.11525700       0.64826500
C        6.07399600       1.59131100       0.47737200
C        4.74912100       2.32240900       0.59855200
C        3.61218800       1.31034200       0.53717100
C        0.04963200      -1.48371300       0.07141000
C       -0.43006000      -0.92332700      -1.08768100
C       -1.65710800      -0.29133000      -1.14013100
C       -2.42589800      -0.21175600      -0.02284600
C       -3.72592300       0.43062900       0.01068400
C       -4.56317300       0.43935900      -1.07961300
C       -5.81078600       1.03976100      -1.09051600
C       -6.26538000       1.67854200       0.06105600
C       -5.43493100       1.67443300       1.15482700
C       -4.19626500       1.06986200       1.14113800
C       -1.95565100      -0.77450400       1.16298500
C       -0.73000500      -1.40145800       1.19937400
24
Properties=species:S:1:pos:R:3 energy=0.1319972356599861 pbc="T T T"
N        5.54820600       2.42219100      -1.48552500
C        5.43168100       1.41156800      -0.46494800
O        6.36238800       1.26619900       0.36257200
C        4.24272400       0.55815300      -0.38664800
C        2.97877700       1.32070900      -0.17747000
C        2.04761000       0.67958100       0.82969000
N        2.08532500      -0.73922400       0.61254500
C        0.82332700      -1.42232300       0.24745600
N       -0.30402900      -0.97651700       0.08864800
C       -1.35574000      -1.66470400      -0.23446000
C       -2.70896500      -1.07888800      -0.41704100
C       -3.77851400      -1.86456500      -0.75934700
C       -5.04429700      -1.34624600      -0.93481700
C       -5.23437900       0.01655100      -0.75740000
C       -4.17646900       0.81404800      -0.41558700
C       -4.29830900       2.18081000      -0.22363200
C       -3.20822500       2.93888600       0.11849600
C       -1.96304200       2.37515100       0.28256700
C       -1.81999800       1.03057200       0.09844700
C       -2.93941600       0.26966500      -0.25010100
C       -1.14794200      -3.02553800      -0.40780800
S        0.70584000      -3.14527600      -0.04948100
C        3.29273800      -1.46803200       0.74278900
C        4.46071000      -0.55277200       0.59769500
32
Properties=species:S:1:pos:R:3 energy=0.1313061506565307 pbc="T T T"
C        5.61244900      -3.83797500       0.40576100
O        4.86596000      -2.87176300      -0.30871900
C        5.20994200      -1.51739400      -0.28808800
C        6.29786600      -1.06786400       0.43461200
C        6.65659800       0.26240300       0.47021000
C        5.89030000       1.16382800      -0.24771500
C        4.81566000       0.72986800      -0.96331700
C        4.46086600      -0.60226800      -0.99570100
N        3.35006200      -1.06958200      -1.73214800
S        2.39897700       0.04068900      -2.62266400
O        3.24047900       0.82329800      -3.61516800
O        1.25071000      -0.64533200      -3.29610000
C        1.68966300       1.20941600      -1.49649400
C        2.35115400       2.37624100      -1.18151800
C        1.83101600       3.29764500      -0.31675600
C        0.59401700       3.03367700       0.25453100
C       -0.07418100       1.88377900      -0.04624200
N       -1.36276800       1.60421800       0.54609100
C       -2.04861400       0.40243200       0.22423000
O       -1.53736800      -0.41810100      -0.57436500
C       -3.34674500       0.14480000       0.83547100
N       -3.99422500       0.94296400       1.70093300
C       -5.16534600       0.39138800       2.05932300
C       -6.12173300       1.01623900       3.00247600
C       -5.31182300      -0.81624200       1.41533200
C       -6.44344900      -1.75557400       1.51582600
C       -6.47623000      -2.83970200       2.53416900
O       -7.42174200      -1.66081200       0.73148100
C       -4.16910500      -0.95957100       0.65335100
C       -3.89880500      -2.13199000      -0.21563600
C        0.46667200       0.97395700      -0.91624100
H       -3.61026100       1.86708600       2.03307700
21
Properties=species:S:1:pos:R:3 energy=0.1243953006219765 pbc="T T T"
O        0.26328500      -2.48531000       0.63082900
C        1.22272000      -1.73833500       0.37108100
N        2.61223800      -2.03107200       0.59337200
C        3.42100900      -0.94678000       0.17830800
C        4.79048600      -0.69552700       0.16340000
C        5.28516200       0.50346900      -0.32290700
C        4.41811900       1.46510100      -0.79986000
C        3.07432700       1.22051100      -0.78612000
C        2.57960900       0.02397800      -0.30087600
C        1.17696300      -0.41910700      -0.20505600
C        0.09808500       0.22797000      -0.56869200
C       -1.25848900      -0.22289600      -0.48008800
C       -1.67678600      -1.46957700      -0.81840900
C       -2.99636700      -1.82024600      -0.70234300
N       -3.92814100      -0.96589200      -0.25639900
C       -3.52302600       0.26989200       0.08059200
C       -4.50038800       1.16281800       0.54730800
C       -4.15301300       2.44719500       0.91054100
C       -2.82808100       2.82880700       0.80373500
C       -1.85860200       1.96522300       0.34808200
C       -2.21911000       0.67977800      -0.01315100
20
Properties=species:S:1:pos:R:3 energy=0.1230131306150656 pbc="T T T"
O       -4.53874900       1.47849600      -1.63436700
C       -3.31928000       1.04124000      -1.10746900
C       -2.15899600       1.22885400      -1.83696500
C       -0.94293900       0.79555100      -1.31710500
C       -0.84233100       0.17984600      -0.09177500
C        0.44541900      -0.28191200       0.46468600
N        1.55184100      -0.00677200      -0.42712900
C        2.89287400      -0.35467000      -0.11872700
C        3.28457800      -0.97780000       1.03463100
C        4.61516000      -1.27869900       1.25032000
C        5.57852500      -0.96801000       0.32885900
C        5.20172300      -0.33978400      -0.83934500
C        3.86470300      -0.03888900      -1.05309500
Br       3.43148200       0.83269800      -2.70058400
C       -2.01471000       0.00232300       0.62075700
C       -1.98603000      -0.60801900       1.85664600
C       -3.15059500      -0.78840400       2.57267200
C       -4.34289400      -0.35354100       2.04253200
N       -4.34319400       0.23855800       0.83535500
C       -3.22658800       0.42559300       0.12010300
16
Properties=species:S:1:pos:R:3 energy=0.1223220456116102 pbc="T T T"
C       -0.61545800       2.69360400      -0.17014700
N       -1.04787000       1.53035000      -0.88946500
C       -0.61919400       0.29749200      -0.30878100
C        0.85328700       0.14239400      -0.26876800
C        1.70029600       1.13752000      -0.76517400
C        3.06168500       0.97114300      -0.71709700
C        3.62230900      -0.17462300      -0.18122700
C        2.75403400      -1.14589700       0.30424000
C        1.38729000      -1.01005800       0.27092000
Cl       0.29073800      -2.23246700       0.88197600
C       -1.15323000      -0.83576700      -1.18073500
C       -2.64431300      -0.86073700      -1.24888600
C       -3.30677000      -0.49681700       0.06292600
C       -2.33970700      -0.82068100       1.18381200
C       -1.19563100       0.10849200       1.03459500
O       -0.74746700       0.69605400       1.99181200
26
Properties=species:S:1:pos:R:3 energy=0.121285418106427 pbc="T T T"
C        0.52452700      -5.88288300       0.25485300
C        0.59561100      -4.66310400       1.14289900
C        0.57750400      -3.47261600       0.26583800
O        0.53248900      -3.57389000      -1.00069600
N        0.61052300      -2.16148600       0.79882500
C        0.58706700      -1.00467800       0.00396300
C        1.76788100      -0.15908800      -0.02769700
C        1.90205900       0.82355000      -0.98612700
C        3.05218300       1.60793200      -0.98958100
C        4.04908300       1.41489600      -0.05615500
O        5.22056100       2.18459700      -0.02942400
C        5.31751400       3.19496200      -1.01233500
C        3.91423400       0.43124200       0.90051200
C        2.76722900      -0.34417600       0.89888100
C       -0.69473600      -0.30028200      -0.11253700
C       -1.43803600      -0.41352500      -1.27016000
C       -2.64236400       0.23388800      -1.43538100
Cl      -3.59208000       0.07948000      -2.92919800
C       -3.08997500       1.01434300      -0.38274300
C       -4.28350700       1.68611100      -0.50326000
C       -4.74483100       2.47311000       0.52796300
C       -4.02217200       2.59832900       1.68927900
N       -2.86395300       1.94321300       1.79913000
C       -2.39496600       1.17023800       0.80449000
C       -1.20201000       0.50241100       0.91203800
O       -0.44983400       0.61742700       2.08091100
33
Properties=species:S:1:pos:R:3 energy=0.1209398756046993 pbc="T T T"
C       -0.91406000       4.04225300       0.23605100
N       -1.61700900       2.76380100       0.14721100
C       -1.33781600       1.60601500       0.78789900
C       -2.23313900       0.63127200       0.44162000
C       -2.35461200      -0.75753400       0.85466300
C       -1.38296500      -1.61268800       1.08029500
C        0.05458000      -1.37376600       0.97250200
C        0.83767800      -0.30832800       1.32764000
N        2.13356100      -0.55203400       1.03128400
C        3.23359000       0.36301300       1.27201600
C        3.49237600       1.32206900       0.16415000
C        3.80573700       0.58362100      -1.11061500
S        4.11886200       1.84207100      -2.40990600
C        5.62231400       2.70503300      -1.97392000
N        6.09797600       3.66640500      -2.69051600
N        6.33491100       2.33883100      -0.80213400
C        2.21891200      -1.79574300       0.47072600
C        3.29086000      -2.51412100       0.00086200
C        3.10059900      -3.77020100      -0.52152200
C        1.83187100      -4.28047000      -0.56131900
C        0.75186100      -3.57004900      -0.09408400
C        0.94404700      -2.30811600       0.43143000
C       -2.01689700      -2.88699700       1.47392400
O       -1.38002100      -3.91687700       1.76105600
N       -3.41455400      -2.73447200       1.46759500
C       -3.66912800      -1.41243300       1.08422500
O       -4.76201900      -0.82020500       0.93838800
C       -3.09554600       1.27020500      -0.46739100
C       -4.19380400       0.85630400      -1.17572500
C       -4.90945100       1.66714700      -2.03040900
C       -4.49982800       2.97042300      -2.18390900
C       -3.39972300       3.40172700      -1.48072000
C       -2.68916500       2.58384200      -0.62738300
27
Properties=species:S:1:pos:R:3 energy=0.1188666205943331 pbc="T T T"
O        7.10951500       0.04729600       0.73201900
C        6.81205800       0.07483400      -0.64358800
C        5.89940600      -1.08659700      -0.99540900
N        4.65586600      -1.02945500      -0.26521000
C        3.84602000      -2.16789500      -0.65527500
C        2.53761000      -2.19356500       0.13638800
N        2.46276100      -0.95105200       0.86678000
C        1.46329100      -0.91362900       1.88490500
C        0.04909900      -0.92970600       1.40345800
C       -0.23578700       0.26164200       0.52395400
N       -1.60805700       0.26014600       0.04707800
C       -2.04589000      -0.84388000      -0.73991200
C       -1.12160700      -1.87163900      -1.00988900
C       -1.45309100      -2.96087400      -1.75021600
C       -2.71874800      -3.10493400      -2.27123400
C       -3.60776600      -2.09455000      -1.99906600
C       -3.30345400      -0.98981900      -1.25931900
S       -4.51286900       0.28874400      -0.94499700
C       -3.72125900       1.52198500       0.04206600
C       -4.43806000       2.61358200       0.42361900
C       -3.88055500       3.63440700       1.20563100
C       -2.56118900       3.50092200       1.58554100
Cl      -1.85376600       4.76886000       2.56333500
C       -1.85910900       2.39505100       1.19074100
C       -2.41265100       1.36977000       0.40752500
C        2.56293800       0.20460800       0.03784800
C        3.93529500       0.19574600      -0.61600700
20
Properties=species:S:1:pos:R:3 energy=0.1389080856945404 pbc="T T T"
O       -2.64241600       3.52827100      -0.63778300
C       -2.67840800       2.30049300      -0.33030700
N       -3.77086300       1.44736500      -0.10281200
C       -3.31824200       0.14093500       0.21839700
C       -4.02357000      -1.02287700       0.50203400
C       -3.34171800      -2.16884000       0.76395200
C       -1.96028400      -2.19326900       0.75264000
C       -1.29510700      -1.03013600       0.46934300
C       -1.94244700       0.14005800       0.20090500
C       -1.47265500       1.50139500      -0.14539100
C       -0.22170700       1.82524100      -0.29147500
C        0.93433400       0.95979400      -0.07015600
C        1.08898400       0.20437500       1.09533800
C        2.22330000      -0.59221500       1.23532100
C        3.21575000      -0.68674700       0.29726100
N        4.35977500      -1.51422800       0.46764000
O        4.55444100      -2.21496800       1.47651600
O        5.29985700      -1.55018300      -0.52631500
C        3.05895500       0.06332700      -0.85395300
C        1.93202100       0.86220900      -1.00970600
28
Properties=species:S:1:pos:R:3 energy=0.1178299930891499 pbc="T T T"
C       -4.43805200      -2.11847700       3.09407100
O       -4.71251400      -1.45869100       1.89094400
C       -3.77854400      -0.67163100       1.23315900
C       -2.52093100      -0.53130800       1.78838900
C       -1.55422100       0.24131200       1.17340800
C       -0.22765900       0.38732800       1.76229200
O        0.02835300      -0.20086300       2.84203800
N        0.75101500       1.18624600       1.11336600
C        0.47477000       1.87266100      -0.13285100
C        1.32323300       1.16894600      -1.19648000
N        2.59608500       0.88719600      -0.56158600
C        3.43395000      -0.13983500      -1.11429700
C        3.05418200      -0.85753600      -2.22851000
C        3.88770900      -1.83417000      -2.72639700
Cl       3.39401900      -2.74840100      -4.15318700
C        5.10734800      -2.13950800      -2.15880800
C        5.47904400      -1.41643500      -1.04448200
C        4.65028600      -0.43344300      -0.53566600
Cl       5.12115500       0.49647500       0.89201600
C        3.04737100       1.60642200       0.60820200
C        2.07553000       1.31290400       1.73146800
C       -1.90930300       0.85626200      -0.00917500
C       -3.16819100       0.72097300      -0.57308500
O       -3.49825700       1.35139100      -1.76450200
C       -2.59488300       2.15849600      -2.47257900
C       -4.12649800      -0.05445700       0.05147800
O       -5.40367800      -0.23230300      -0.45700700
C       -6.49131800       0.59044600      -0.15606000
29
Properties=species:S:1:pos:R:3 energy=0.1171389080856945 pbc="T T T"
C        0.92692500      -2.89327800      -0.63136500
N       -0.17944000      -1.98374200      -0.77373500
C       -1.31680100      -2.36397900      -1.42066300
C       -1.71188900      -3.52774200      -2.05743700
C       -2.95646200      -3.63625100      -2.64246100
C       -3.79804100      -2.54749000      -2.57388700
C       -3.40122500      -1.38406300      -1.93649700
C       -2.15680400      -1.28222000      -1.35420500
C       -1.54201800      -0.23974300      -0.67028700
C       -1.96140800       1.03603800      -0.32869600
C       -1.13160700       1.86590600       0.37866700
C        0.11438100       1.41178700       0.73867500
C        1.15063800       2.01367500       1.44772400
C        1.22476900       3.27151300       2.00408900
C        2.40651200       3.60693400       2.66756300
C        3.43672600       2.70142400       2.74739400
C        3.34967600       1.42912100       2.17926500
C        2.16412200       1.12217100       1.52593800
N        1.76032100      -0.01425500       0.87317200
C        2.63237600      -1.17558700       0.76773900
C        3.51693200      -0.92620600      -0.47179800
C        4.38965600      -2.09762100      -0.57000600
N        5.07386000      -3.02635500      -0.66676800
C        0.53801600       0.12531400       0.39191600
C       -0.29070200      -0.72014600      -0.31866000
C       -1.79558300       3.17297800       0.62664200
N       -3.08451400       3.05611600       0.01024100
C       -3.18798200       1.74216000      -0.57718000
O       -4.17043500       1.26354100      -1.20685500
30
Properties=species:S:1:pos:R:3 energy=0.1161022805805113 pbc="T T T"
C        6.05972800       5.15294000       3.21556400
C        6.63698300       4.37293200       2.07007100
O        5.63827300       3.64588500       1.39000200
C        5.91003600       2.83459500       0.29875900
O        7.11595400       2.77461100      -0.06692900
C        4.86100800       2.08010000      -0.40173900
C        5.19008600       1.26586200      -1.47166100
C        4.21990000       0.54138900      -2.14207300
C        2.89091400       0.59540600      -1.78062600
N        1.91100700      -0.18817500      -2.48640400
C        0.53015900      -0.09930900      -2.27835500
O        0.05911100       0.69682800      -1.44884400
C       -0.43897400      -0.96927000      -3.05320400
S       -2.10318500      -0.59508900      -2.67733700
C       -2.74624900      -1.03965900      -1.09603000
N       -4.01887300      -0.61725600      -0.78105800
C       -4.60623300      -0.87514500       0.32435500
C       -3.86099600      -1.68393500       1.33084100
C       -2.64690800      -2.08868000       1.02910500
C       -2.02024300      -1.79001400      -0.20307100
C       -0.74301200      -2.31854100      -0.46402700
N        0.31031400      -2.73291500      -0.67917700
N       -4.80906000      -1.72969500       2.34409500
C       -5.02106800      -0.62604700       3.24680500
C       -5.81837300       0.28087700       2.15797000
C       -5.93459900      -0.54354100       0.86865900
C       -6.74336600      -1.80743100       1.18766800
C       -5.92062600      -2.64188900       2.31916800
C        2.56044200       1.40988200      -0.71152800
C        3.53785200       2.13519100      -0.04099800
23
Properties=species:S:1:pos:R:3 energy=0.5563234277816171 pbc="T T T"
O       -1.01317500      -1.43704500      -0.98774700
C       -1.69812500      -0.45577800      -0.54385100
N       -0.96041700       0.64891100      -0.08360500
C        0.48669400       0.67027800      -0.08807500
N        1.59475400       0.17374900      -0.20458200
C        2.74966200       0.59698500      -0.21562600
C        4.02605900      -0.15151300      -0.30161900
C        5.22805300       0.47745500      -0.44062300
C        6.42461100      -0.18533500      -0.45339200
C        6.44557600      -1.57927900      -0.32237500
C        5.23073500      -2.20892200      -0.18521300
C        4.03056700      -1.51920500      -0.17342100
C        2.87289600       2.12274400      -0.04098400
S        1.03463800       2.48056200       0.09814700
C       -3.17225300      -0.47686700      -0.52846000
C       -3.89622900      -0.61566100      -1.68200400
C       -5.29953400      -0.54614700      -1.69022400
C       -5.95023700      -0.32526800      -0.50725000
C       -5.23714400      -0.17679600       0.67307200
C       -3.86357900      -0.25576800       0.65289200