32
Properties=species:S:1:pos:R:3 energy=1.667706820558076 pbc="T T T"
C        5.18341500       4.20379700       1.21396800
N        4.67765900       3.00048800       0.62684200
C        3.33509000       3.22058900       0.15572400
C        2.83294900       2.10178300      -0.73012000
N        3.68008700       0.93880100      -0.67090000
C        3.12037700      -0.34433800      -0.49694800
C        1.75255800      -0.54977100      -0.37610200
C        1.26826600      -1.82492700      -0.20846300
C       -0.18320100      -2.07872900      -0.07652200
N       -1.06871800      -1.07043300      -0.11681600
C       -2.40221200      -1.27862400       0.00179000
N       -3.33910800      -0.21527800      -0.04050600
C       -2.95957900       1.14266900      -0.20917100
C       -3.96794000       2.08833400      -0.23404800
C       -3.67875600       3.43277600      -0.39478200
C       -2.37957600       3.87250700      -0.53501200
F       -2.13334500       5.19668900      -0.69051900
C       -1.37103600       2.92014100      -0.50945000
F       -0.10568000       3.37087300      -0.64836200
C       -1.67083400       1.57080400      -0.34743600
C       -2.89909200      -2.55363100       0.17032700
C       -4.25113600      -2.81332700       0.29562300
C       -4.73413900      -4.11052400       0.46544500
C       -3.81425800      -5.14241500       0.50569100
C       -2.46666200      -4.86216400       0.37858300
C       -1.98182200      -3.58265000       0.21046200
N       -0.66221300      -3.32143000       0.08735800
C        2.16625500      -2.86995700      -0.16528500
C        3.51071600      -2.65369000      -0.28555700
N        3.94090800      -1.40602400      -0.44640500
C        5.10233200       1.09620400      -0.79060500
C        5.49869600       2.52145800      -0.47277800
35
Properties=species:S:1:pos:R:3 energy=1.667706820558076 pbc="T T T"
C        8.21859800       2.16419000      -1.70963800
C        7.25035800       1.37909100      -0.90517800
C        6.40761000       2.02106300      -0.00151300
C        5.49806800       1.29182700       0.75543800
C        5.40004000      -0.07309200       0.63953200
S        4.26702700      -1.02041400       1.57643400
O        4.00334800      -0.32578800       2.88362800
O        4.83941400      -2.37301300       1.89709000
N        2.75628200      -1.19130300       0.77284600
C        2.60880500      -1.82427900      -0.47537400
C        3.74144700      -2.34210000      -1.09965800
N        3.61857000      -2.94457400      -2.28230100
C        2.41399300      -3.05119300      -2.86622800
C        1.26298600      -2.54223600      -2.26458700
C        1.36367400      -1.91536600      -1.04265300
C        0.21439600      -1.36327600      -0.35845600
O        0.37744400      -0.80483500       0.75346700
N       -1.10587100      -1.42007400      -0.88446800
C       -2.19915600      -0.85976800      -0.16687700
C       -3.46640800      -0.93273500      -0.70725500
C       -4.55909200      -0.39860500      -0.03911800
C       -4.42453300       0.22300700       1.18428400
S       -5.80154200       0.90320000       2.03972600
O       -5.65373900       0.78088100       3.50796500
O       -7.03083000       0.17588400       1.53109300
N       -5.95345500       2.54133000       1.52363700
C       -6.20934700       2.74599100       0.11479000
N       -6.34349300       1.83273000      -0.83945000
C       -6.57087900       2.20965900      -2.04998700
C       -6.66595200       3.54869600      -2.30637200
S       -6.41621400       4.20717600      -0.75010500
C       -3.15890200       0.29770100       1.72742900
C       -2.06393000      -0.23805200       1.05693400
C        6.23455300      -0.71064000      -0.25558500
C        7.14672700       0.00891700      -1.01653900
33
Properties=species:S:1:pos:R:3 energy=1.7404661748405046 pbc="T T T"
O        0.39951900      -0.85779100       0.11061000
C        0.65038100       0.04366100       0.94309800
N        1.99819700       0.48299100       1.02637900
C        3.00128700      -0.11738800       0.16406900
N        4.27344000       0.11566200       0.06168800
C        4.99327500      -0.56360000      -0.80473700
C        6.46624600      -0.39370500      -1.02289400
C        7.13233500       0.54207400      -0.26542700
C        8.48324000       0.78773200      -0.37596200
C        9.17675600       0.03302400      -1.31061800
C        8.50956500      -0.91029100      -2.07530600
C        7.15194600      -1.12092200      -1.92809700
C        4.32230500      -1.49697800      -1.55856600
S        2.72530400      -1.34458500      -0.98653700
C       -0.42054800       0.57329500       1.75275000
C       -0.19455500       1.56646700       2.68298500
C       -1.22364600       2.08116300       3.46661400
N       -2.46945700       1.60351900       3.31839400
C       -2.68054900       0.63689800       2.41070100
C       -1.70424600       0.08786400       1.60674400
N       -1.89207700      -0.92500700       0.65523800
S       -3.41813200      -1.53665800       0.21713900
O       -4.14688500      -2.13073000       1.42107500
O       -3.24124900      -2.70340900      -0.72907400
C       -4.48813500      -0.35310900      -0.49057200
C       -5.45284600       0.33122300       0.20519600
F       -5.61039900       0.03136700       1.53049000
C       -6.28028000       1.28723800      -0.37484600
C       -6.14362500       1.57596500      -1.70688400
F       -6.93957400       2.51348200      -2.32189000
C       -5.18096900       0.89956200      -2.42554500
C       -4.36979500      -0.04069100      -1.84553000
F       -3.42682900      -0.69832400      -2.56538700
31
Properties=species:S:1:pos:R:3 energy=3.258096538021482 pbc="T T T"
F       -1.55714400       4.94916600      -1.22740200
C       -1.83537200       3.62406800      -1.25505200
C       -0.99677400       2.67029700      -0.71756900
C       -1.31093000       1.33742300      -0.76377300
C       -2.47186700       0.87956400      -1.34462300
N       -2.77672100      -0.50842000      -1.38077900
C       -1.85857000      -1.42734900      -0.80379600
N       -0.71952000      -1.00903500      -0.23102200
C        0.14505900      -1.86393800       0.31134700
C        1.38719000      -1.39499200       0.93479000
C        2.25738300      -2.28711100       1.48360100
C        3.43542600      -1.87938300       2.07828000
N        3.70537100      -0.58565900       2.10436900
C        2.86406800       0.33589100       1.56835700
N        3.24458500       1.68513600       1.64867100
C        2.38538000       2.68846000       1.09575800
C        3.11172000       3.27456800      -0.11465100
C        4.61133300       3.13913100       0.04148500
C        5.06505200       3.20223800       1.46062700
C        4.46925600       2.06761200       2.27046300
C        1.67263100      -0.06182100       0.96557400
N       -0.13276900      -3.17325800       0.28244900
C       -1.24664500      -3.65164700      -0.27130700
C       -1.52287700      -5.01105500      -0.29475400
C       -2.67721500      -5.43629800      -0.87510100
C       -3.60592200      -4.59076000      -1.45101600
C       -3.32796500      -3.24337900      -1.42554100
C       -2.14898900      -2.78917700      -0.83463000
C       -3.32346500       1.81785100      -1.88765800
C       -3.00284700       3.15659700      -1.83852500
F       -3.83886200       4.08528100      -2.37231900
29
Properties=species:S:1:pos:R:3 energy=3.258096538021482 pbc="T T T"
C       -6.08974000       2.83204800      -0.20817600
O       -5.28140400       1.75527500       0.22525600
C       -3.92541700       1.79468000      -0.13750000
N       -3.41662800       2.79896000      -0.85788800
C       -2.11474500       2.83069500      -1.20256800
C       -1.25614500       1.81300100      -0.81660200
C       -1.76982800       0.78342700      -0.08005600
C       -0.87365000      -0.31030800       0.34140800
N        0.44210900      -0.27565800      -0.00844100
C        1.27914300      -1.24924500       0.35688600
N        2.62966100      -1.20665200      -0.00636100
C        3.22337200      -0.16559900      -0.76970800
C        4.56754200      -0.22921000      -1.06865300
C        5.18085600       0.77761800      -1.81671300
C        4.46080000       1.86160000      -2.27652600
F        5.13803400       2.78876400      -2.99355100
C        3.13149900       1.92638700      -1.98199800
F        2.41843700       2.99066500      -2.43192800
C        2.51431300       0.92050200      -1.23352500
C        0.80359600      -2.30012800       1.09645100
C        1.62787100      -3.31419400       1.48888700
C        1.18378200      -4.38651200       2.23324600
C       -0.15232500      -4.39470700       2.57256800
C       -1.02842500      -3.40457200       2.20723800
C       -0.54657600      -2.35196700       1.46506700
N       -1.33491400      -1.34207600       1.06611000
C       -3.09850900       0.76715300       0.26220600
O       -3.60984600      -0.30285200       1.02204100
C       -4.10286400      -1.40709400       0.25889700
30
Properties=species:S:1:pos:R:3 energy=3.4011973816621555 pbc="T T T"
O       -1.27785300       2.04267600      -0.88451100
C       -1.58169400       1.86566300       0.35287100
C       -2.92629800       2.14309300       0.79718900
C       -3.97515300       1.14243100       0.58145400
N       -4.41906900       0.25542500       1.54409700
C       -5.41834500      -0.47007600       1.02633000
C       -6.19872900      -1.47363900       1.57145900
C       -7.20097900      -2.08837100       0.85081300
C       -7.39648200      -1.65956400      -0.45302900
Cl      -8.63951800      -2.37680100      -1.44914800
C       -6.61704900      -0.65968800      -0.99201700
C       -5.61400800      -0.05042700      -0.25558400
N       -4.72233900       0.94057900      -0.51864800
N       -0.53197100       1.40272200       1.20507600
C        0.77486300       1.19648100       0.71038000
C        1.15685800       1.57323400      -0.55599200
C        2.44967400       1.43073900      -1.03710200
C        3.45019800       0.88161000      -0.23222900
S        5.10210100       0.72821200      -0.77306200
O        5.39315500       1.64694200      -1.92572100
O        6.00295200       1.17420600       0.37268800
N        5.51889300      -0.86724800      -1.25597600
C        6.45492400      -1.60438300      -0.40936700
N        6.92618200      -2.83316300      -0.56756600
C        7.76321900      -3.31324200       0.29813300
C        8.12624700      -2.52424300       1.34912300
S        7.23294000      -1.10857200       1.03297600
C        3.04537700       0.51320300       1.02432000
C        1.77417700       0.64489900       1.51217200
H       -4.65227400       1.44730300      -1.44284300
32
Properties=species:S:1:pos:R:3 energy=3.2188758248682006 pbc="T T T"
C       -7.52073200       0.88610200       1.63114100
C       -6.48387100       1.79815300       1.08863500
O       -6.54865900       3.00912800       1.39999000
C       -5.44863800       1.26817200       0.23158300
C       -5.53656300       1.17850900      -1.13810300
C       -6.70329700       1.62802500      -1.98346500
N       -4.39738800       0.62488200      -1.56393700
C       -3.56473500       0.34509100      -0.54811500
C       -2.25599400      -0.27565000      -0.56322200
O       -1.60358400      -0.36971600       0.53298300
N       -1.61191800      -0.80798800      -1.70737700
C       -0.33273200      -1.42298700      -1.70606600
C        0.04520500      -2.02778500      -2.90860700
C        1.26001300      -2.66702300      -3.01836300
C        2.08646000      -2.69411500      -1.92024300
C        1.76601400      -2.11452600      -0.70914200
S        2.84369600      -2.21601600       0.62532800
O        4.18238900      -2.71777000       0.09335700
O        2.30754800      -3.45022000       1.67015700
N        3.15421400      -0.75859600       1.44477100
C        4.43557500      -0.10874000       1.33953900
C        5.57975400      -0.70742000       1.81887300
C        6.82030400      -0.07258500       1.71757400
C        6.90360900       1.17337500       1.13058000
C        5.77266200       1.77640600       0.65188600
C        5.90498300       3.08636100       0.04294000
N        6.01159200       4.14245000      -0.43572700
C        4.54130000       1.13226300       0.75812000
C        0.52291500      -1.47455000      -0.63894400
C       -4.23293800       0.75386700       0.58696700
C       -3.74057900       0.65965700       1.98698100
H       -4.15660400       0.42324600      -2.57321200
32
Properties=species:S:1:pos:R:3 energy=1.7316555451583497 pbc="T T T"
O       -1.01605600       1.15581300       0.47125500
C       -1.13477100       0.29220100      -0.45094300
N       -2.38535400      -0.16125900      -0.82148500
C       -3.62118300       0.18284800      -0.30655300
C       -4.55232900       0.79845200      -1.16240700
C       -5.83409600       1.09581500      -0.77522900
C       -6.27111200       0.79520200       0.50603400
C       -5.38491400       0.19108600       1.37157500
C       -5.82970400      -0.20367200       2.75475400
F       -6.80224800      -1.22085400       2.62838100
F       -6.41397200       0.84756300       3.39522000
F       -4.75372400      -0.71876400       3.46371500
C       -4.09143400      -0.10477600       0.96915200
N        0.04029100      -0.10608800      -0.99121500
C        1.37246000       0.02687400      -0.96516000
C        2.13979500       0.86229800      -0.13214400
C        3.51936700       0.89522400      -0.19717200
S        4.48365100       1.95186500       0.85140200
O        3.70132800       3.18820600       1.08224100
O        5.76664700       2.36016000       0.17005300
N        4.94311200       1.15694900       2.30607400
C        5.75030000       0.00189200       2.08655100
C        6.31670100      -0.78961600       3.22310000
C        7.25458700       0.15709900       2.39338200
C        4.19512200       0.10186200      -1.08721800
C        3.48093900      -0.75094200      -1.93925200
C        2.10752200      -0.77368000      -1.86670100
C        1.29872600      -1.66496200      -2.72354300
C        0.21252300      -1.22955300      -3.37143800
C       -0.49865300      -2.11274300      -4.11767900
S        0.38752700      -3.58065700      -3.89788700
C        1.61895400      -2.98666800      -2.86686000
32
Properties=species:S:1:pos:R:3 energy=3.2188758248682006 pbc="T T T"
F        7.68117700       3.10969800      -1.03810400
C        6.55381800       2.37839800      -0.76516000
C        6.14293800       1.38515200      -1.64494100
C        5.00867400       0.64699300      -1.37176000
C        4.24873700       0.84718800      -0.25193300
C        3.05396600       0.06685300       0.04010900
C        3.17143200      -1.24638000       0.47546500
C        2.06783500      -2.01983100       0.76520600
C        0.79893200      -1.48328600       0.62235900
N       -0.31609000      -2.28203700       0.92358200
C       -1.66372100      -1.84707200       0.78376700
N       -1.97142000      -0.61310900       0.32005700
C       -3.21603800      -0.15617800       0.15892000
C       -3.55331700       1.16963800      -0.34438500
C       -4.87277400       1.53507900      -0.47259400
C       -5.12722300       2.79970200      -0.95582300
N       -4.16933600       3.66935000      -1.29828500
C       -2.88283400       3.31688200      -1.17506300
C       -2.57542100       2.06436400      -0.69718300
N       -4.21048300      -1.02369000       0.49682500
C       -3.98584400      -2.26052400       0.96271600
C       -5.05459100      -3.07275400       1.28153900
C       -4.78074800      -4.32831000       1.75478800
C       -3.50077900      -4.81837300       1.92763600
C       -2.45538000      -3.97046700       1.59558800
C       -2.69665700      -2.70266800       1.11739300
C        0.69480300      -0.17762100       0.18946800
C        1.78654500       0.61199500      -0.10561000
F        1.70422200       1.88381900      -0.52672400
C        4.64965200       1.84426100       0.64414400
Cl       3.67899200       2.09227400       2.06707800
C        5.79093500       2.58065700       0.36050400
32
Properties=species:S:1:pos:R:3 energy=1.7227665977411035 pbc="T T T"
C       -6.72261700       0.61572800       3.99992400
C       -5.76934000       0.88693900       2.88693000
C       -4.67801900       1.69671200       3.11935800
C       -3.75594000       1.98303200       2.11515900
C       -3.91679700       1.45618000       0.85129300
S       -2.79853600       1.77633800      -0.44825900
O       -3.57605400       1.71145600      -1.73333400
O       -2.20887500       3.14155400      -0.29855800
N       -1.52710700       0.64376000      -0.53061100
C       -1.82927300      -0.73615900      -0.76638500
C       -3.13285700      -1.15290000      -0.92644800
C       -3.42756700      -2.48056100      -1.15360700
F       -4.72531900      -2.84884200      -1.30574100
C       -2.38534100      -3.37317300      -1.21542400
C       -1.08541000      -2.95957000      -1.05611400
C       -0.80387200      -1.63123800      -0.82981600
C        0.60659300      -1.21270700      -0.66162400
O        0.86829200      -0.00349400      -0.45519700
N        1.68514200      -2.11918400      -0.72293600
C        3.04590000      -1.74270000      -0.56488800
N        3.66716700      -0.60527800      -0.34320000
C        4.96250000      -0.57908200      -0.24418900
C        5.69651700       0.68966300       0.00613400
C        7.05851300       0.66322400       0.10178500
C        7.77168100       1.81655200       0.33272700
C        7.14771800       3.03552500       0.47591500
C        5.77381200       3.05189400       0.37783100
C        5.05770600       1.89895200       0.14673300
C        5.62665100      -1.77486700      -0.38069000
S        4.31992500      -2.85988100      -0.64451000
C       -5.01575800       0.64872400       0.64133900
C       -5.92943700       0.36340800       1.63154500
32
Properties=species:S:1:pos:R:3 energy=1.7227665977411035 pbc="T T T"
O       -1.37009200       3.45866700       2.42096400
S       -0.27828500       2.47540100       2.70716600
O        0.68545900       2.97906700       3.73910000
N       -0.93468000       0.94036800       3.20977200
C       -1.87973300       0.24777000       2.41226300
C       -3.00370700      -0.31226100       2.98595600
C       -3.92865100      -0.98886700       2.19994300
C       -3.77222300      -1.13120400       0.83642400
C       -4.72758300      -1.83638400      -0.00947800
C       -5.43133700      -2.89674400       0.49383200
C       -6.34485000      -3.58898900      -0.27343000
C       -6.59245000      -3.24470400      -1.58635800
C       -5.88038700      -2.17200700      -2.09547700
C       -4.96419600      -1.48003200      -1.32083600
C       -2.64118600      -0.56554300       0.27175800
C       -1.71018400       0.11256100       1.04456200
C        0.56954200       2.18476200       1.19603800
C       -0.09628200       2.28749100      -0.00943600
C        0.51826500       2.07208000      -1.21843300
C        1.86317600       1.73560400      -1.26885100
N        2.50175900       1.51847500      -2.51765000
C        3.88410800       1.12039200      -2.57531400
C        4.08026100      -0.19800100      -1.93557300
C        2.98861400      -0.84594800      -1.40775300
C        3.17682600      -2.07963100      -0.81605900
C        4.43122900      -2.64323600      -0.75878000
C        5.53074700      -1.98231800      -1.29463200
Cl       7.13036000      -2.70898800      -1.21993500
C        5.34107500      -0.75674000      -1.88186700
O        6.43256300      -0.07869100      -2.42432400
C        2.51367200       1.63691100      -0.05919700
C        1.90817100       1.85026400       1.15560500
30
Properties=species:S:1:pos:R:3 energy=1.7227665977411035 pbc="T T T"
C        7.15686900       2.56063200       0.44947000
C        6.11698800       1.50595200       0.67169200
C        5.85228300       0.56373900      -0.30155400
C        4.89880900      -0.41576900      -0.11684200
C        4.17344000      -0.48927100       1.05033000
S        2.97928500      -1.73583000       1.25148500
O        2.92198100      -2.23592400       2.66228400
O        3.41154800      -2.91042700       0.39124000
N        1.43734500      -1.20556400       0.68735500
C        1.33248100      -0.86412600      -0.68530700
C        2.43628100      -0.95496400      -1.54597600
N        2.30971800      -0.62491400      -2.84447300
C        1.13573100      -0.21052000      -3.31814400
C        0.01514100      -0.10931700      -2.48364200
C        0.11154900      -0.43982900      -1.14877200
C       -1.01140500      -0.35398900      -0.24437200
O       -0.85000800      -0.67085500       0.95692100
N       -2.30555500       0.07242100      -0.63373700
C       -3.41447500       0.16444400       0.22768900
C       -3.40333900      -0.14334400       1.56085000
C       -4.53369600      -0.03255700       2.36477400
C       -5.72033300       0.40415800       1.80766600
C       -5.75753200       0.72137600       0.46297300
C       -6.96081700       1.15385700      -0.05665500
C       -6.98531000       1.46889900      -1.40632900
C       -5.87398200       1.36480400      -2.21781900
C       -4.69928900       0.92904200      -1.65124800
C       -4.60972000       0.59892700      -0.30984300
C        4.43983800       0.45452600       2.02301000
C        5.39617300       1.43442400       1.83384900
31
Properties=species:S:1:pos:R:3 energy=3.2188758248682006 pbc="T T T"
N       -7.23847700       1.27934400       2.09362400
C       -6.05502200       1.38620700       1.30390000
C       -5.98403100       0.66217100       0.14438700
C       -4.86458400       0.73095100      -0.65181100
C       -3.82242200       1.53097400      -0.27246000
S       -2.40856900       1.59644800      -1.31062300
O       -2.82499200       1.42877800      -2.75571200
O       -1.80654900       2.96232100      -1.18236900
N       -1.25630000       0.37865200      -0.85991600
C       -1.63702600      -0.97679800      -0.93888900
C       -2.91135600      -1.36447800      -1.36823500
N       -3.27323500      -2.65711100      -1.44313000
C       -2.39781900      -3.61874300      -1.09934600
C       -1.11399500      -3.27184600      -0.66506500
C       -0.73005200      -1.95066600      -0.58360700
C        0.61382200      -1.62997400      -0.12731900
O        0.94104100      -0.41165600      -0.06156000
N        1.55222900      -2.63055900       0.23999300
C        2.85114100      -2.19144000       0.67587800
N        3.32467300      -0.96458800       0.79237300
C        4.53993900      -0.78040400       1.20920200
C        5.11245900       0.59424700       1.35437100
C        4.38045400       1.71153900       1.05446800
C        4.91771900       2.96437300       1.19218200
C        6.20951200       3.12280500       1.63675000
C        6.92760500       1.98890800       1.93245800
C        6.40348200       0.73017300       1.79956600
C        5.27641100      -1.90250300       1.51085600
S        4.16481500      -3.15328800       1.17261700
C       -3.88591300       2.25224700       0.87680900
C       -5.00496400       2.18391700       1.67337400
33
Properties=species:S:1:pos:R:3 energy=1.7227665977411035 pbc="T T T"
O        1.40036100      -0.38436000      -0.53175200
C        1.22581800      -1.60213800      -0.78839200
N        2.31711900      -2.48439800      -0.62366200
C        3.58036300      -1.93165800      -0.16623300
N        3.85730900      -0.67385900       0.12658600
C        5.04854400      -0.35408800       0.52384700
C        5.47147700       1.02654900       0.87946500
C        4.52761200       2.01490300       0.77480900
C        4.79575200       3.34448900       1.07719400
C        6.07719400       3.64588600       1.49750400
C        7.01958500       2.65575100       1.60143500
C        6.72039500       1.34201400       1.29278400
C        5.97086300      -1.37575800       0.61643500
S        5.05939000      -2.72782800       0.12489300
C       -0.09155800      -2.05248700      -1.24405300
C       -0.35572000      -3.37137400      -1.54370800
C       -1.58682100      -3.81472300      -1.97335400
N       -2.59376500      -2.94066200      -2.11511400
C       -2.35647200      -1.65133400      -1.82820600
C       -1.13964900      -1.17074400      -1.39635900
N       -0.99918300       0.19564900      -1.12423400
S       -2.27620800       1.31238400      -1.30277200
O       -2.71370300       1.32353400      -2.74898900
O       -1.81998600       2.70332800      -0.98152000
C       -3.62663800       0.94784900      -0.25383600
C       -4.64004200       0.11592800      -0.70102200
C       -5.71733600      -0.18768700       0.10720200
C       -5.82847500       0.32059400       1.38323400
C       -4.83565900       1.14537400       1.84349200
C       -3.74566000       1.45192900       1.02403500
C       -5.17847500       1.55011800       3.22381100
C       -6.68750400       1.46899500       3.23150400
C       -6.87892500       0.15782500       2.45135500
25
Properties=species:S:1:pos:R:3 energy=3.2188758248682006 pbc="T T T"
O        3.51937800       1.23277000      -2.22376700
S        2.83687500       1.68449300      -0.96772200
O        2.25260400       3.04758600      -1.19757500
N        3.95795500       1.79236400       0.33345900
C        4.67019100       0.58764100       0.69282800
N        4.58625300      -0.62273000       0.15415400
C        5.31811900      -1.57356800       0.62878200
C        6.15401900      -1.29364700       1.67218700
S        5.83206500       0.36602700       1.91899800
C        1.56966100       0.55139800      -0.58404400
C        0.42179600       0.98719400       0.05056400
C       -0.60296400       0.12318500       0.37116000
C       -0.52570900      -1.22005100       0.07055300
N       -1.58241300      -2.14468400       0.39443000
C       -2.81057700      -1.77522700       1.01587500
C       -3.55351800      -0.83643000       0.14718400
C       -3.02021700      -0.46767200      -1.06328300
C       -3.68664800       0.40434700      -1.90485600
C       -4.90816100       0.92111000      -1.53698000
C       -5.44599600       0.55987000      -0.33504400
Cl      -6.99591100       1.21969700       0.12446100
C       -4.77517800      -0.32006300       0.51591200
Cl      -5.47333300      -0.76899800       2.04075700
C        0.62165100      -1.66459900      -0.56553400
C        1.64005800      -0.79001300      -0.88101700
29
Properties=species:S:1:pos:R:3 energy=1.7227665977411035 pbc="T T T"
C       -6.21529800      -3.71126700      -0.81679400
C       -6.58239400      -2.46314500      -1.54834500
O       -6.20825600      -1.28248300      -0.89900200
C       -4.89280700      -0.98970400      -0.59774600
C       -3.88399100      -1.88028200      -0.93947200
C       -2.57858700      -1.57521700      -0.63306000
C       -2.24482800      -0.39566100       0.01107800
C       -0.81671700      -0.09999800       0.32674000
C       -0.23396900       0.64749400      -0.85632400
N        1.16411600       0.95366000      -0.58234500
C        1.93861800       1.64588000      -1.52425400
O        1.38832100       1.99845600      -2.62213500
C        3.34557200       2.00294000      -1.34678300
C        4.12262800       2.74791000      -2.24330600
C        5.35972300       2.84462900      -1.66330200
N        5.30762700       2.19399000      -0.49722300
N        4.09865000       1.68147600      -0.29523300
C        3.73543900       0.90043400       0.86170900
C        4.06264300      -0.52817000       0.69952200
C        3.19280100      -1.44950100       0.18988100
C        3.49127500      -2.78284600       0.03592600
C        4.73990300      -3.21660600       0.41737000
C        5.61440200      -2.28659700       0.93048400
N        5.27990800      -0.98219200       1.06517400
C       -3.27148400       0.45917700       0.33239800
C       -4.59025500       0.18939000       0.04257400
O       -5.56807400       1.11217900       0.40439800
C       -5.21896200       2.31275400       1.06107100
C       -4.53600500       1.95329900       2.36346200
33
Properties=species:S:1:pos:R:3 energy=3.367295829986474 pbc="T T T"
C       -8.69072000       2.48649400      -0.22575200
O       -7.81163700       1.92796200       0.72261800
C       -6.70737100       1.15668200       0.34344000
C       -6.48606700       0.94601900      -0.99701700
C       -5.40704900       0.19212200      -1.37305100
C       -4.57452700      -0.33537000      -0.44202600
C       -4.78955500      -0.12884600       0.90179400
C       -3.85220300      -0.73583600       1.88836500
N       -2.81947300      -1.45865800       1.19346000
C       -1.90948500      -0.80643300       0.35258200
C       -1.94366100       0.56404600       0.21975100
C       -1.07496500       1.26531300      -0.59227100
C       -0.11347200       0.59387800      -1.32041900
S        1.01395600       1.43961100      -2.36660700
O        1.47403300       0.46586000      -3.42889200
O        0.42378000       2.66605100      -2.94411500
N        2.39811000       1.82452200      -1.37858000
C        3.17333700       0.80333500      -0.77840200
C        3.53260400      -0.30016500      -1.53314300
C        4.28418100      -1.31530400      -0.99237000
C        4.69933000      -1.25981700       0.31626600
C        5.52320700      -2.36191700       0.92656100
C        6.40022200      -2.88371100      -0.21726000
C        7.07465400      -1.70110300      -0.87639800
N        7.80779200      -0.89354100       0.07391600
C        6.96320900      -0.41199100       1.15652200
C        6.47424100      -1.66632400       1.89441000
C        4.33752500      -0.15730300       1.06195500
C        3.58082900       0.86897900       0.52442600
C       -0.06976400      -0.77979900      -1.19522200
C       -0.94091900      -1.47489900      -0.38186400
C       -5.86968800       0.62636200       1.29027400
O       -6.10045500       0.84377900       2.63729500
34
Properties=species:S:1:pos:R:3 energy=3.367295829986474 pbc="T T T"