33
Properties=species:S:1:pos:R:3 energy=0.1485832757429163 pbc="T T T"
C       -0.01074900      -4.57389100      -1.89050200
O       -1.20136000      -4.00372600      -1.41017400
C       -1.17971600      -2.77585500      -0.73780400
C       -0.00487300      -2.08631300      -0.52300000
C        0.00194500      -0.87788500       0.14075200
C        1.23122100      -0.13997400       0.37461400
O        2.30579400      -0.63574700      -0.04868900
N        1.23584600       1.09557300       1.05382800
C        2.58680100       1.75888800       1.22962200
N        3.67126500       1.62202800       1.00239900
C        4.74213600       2.34016000       1.24765600
C        6.14802500       2.04161700       0.88644600
C        6.46509900       0.89226500       0.20945400
C        7.77115300       0.58012900      -0.14522200
C        8.74732800       1.49606000       0.22220900
C        8.44564900       2.64522700       0.89694300
C        7.12527700       2.93098400       1.23910700
C        4.40850900       3.54472600       1.95736300
S        2.53777700       3.37794800       2.12759800
C       -1.23165800      -0.40123100       0.57564700
C       -2.40272100      -1.09483700       0.35807600
C       -2.40291600      -2.30338600      -0.30666600
N       -3.59969400      -3.03787100      -0.54308700
S       -5.08248500      -2.37167400       0.03051200
O       -4.99399300      -2.11038500       1.52072900
O       -6.19354800      -3.32851700      -0.18762000
C       -5.33809100      -0.83694600      -0.76999900
C       -4.85154300       0.33224600      -0.21316700
C       -5.03948100       1.54768900      -0.82234800
C       -5.72443800       1.64560700      -2.01850800
C       -5.92922500       2.97203000      -2.68279200
C       -6.21567300       0.48698600      -2.58586500
C       -6.02166100      -0.73192300      -1.96546300
33
Properties=species:S:1:pos:R:3 energy=0.0656530753282653 pbc="T T T"
C       -8.60223900       1.30848900       0.85406800
C       -7.15405500       0.99680100       1.06333400
O       -6.50760700       0.69721100      -0.18089700
C       -5.14686200       0.38517000      -0.14403700
C       -4.44271000       0.36318500       1.03787200
C       -3.07863400       0.05012000       1.07264700
C       -2.43007800      -0.24071000      -0.09397900
C       -3.14753600      -0.21860300      -1.30087700
C       -4.47658300       0.08920600      -1.31178800
O       -5.23071100       0.12273100      -2.49467500
C       -4.58076900      -0.17360100      -3.70506400
C       -3.98736400      -1.57507400      -3.70409600
C       -0.98977500      -0.57606100      -0.08934800
N       -0.36902200      -0.47527600       1.20600800
C        0.97063200      -0.03798100       1.39553900
O        1.44848600       0.02704500       2.54146100
C        1.80915300       0.34350100       0.23628500
C        1.29668600       0.30265000      -1.06361600
C        2.35924900       0.73975000      -1.86271600
S        2.85006600       1.07170000      -3.51482000
C        4.61424400       1.60811000      -2.96947500
C        4.51445700       1.45637500      -1.80195500
C        3.42487400       1.01959600      -1.09749600
N        3.06522900       0.76834500       0.18949600
C        3.91070600       0.94344800       1.37343100
C        4.74218200      -0.24326100       1.65544600
C        4.34843900      -1.25714400       2.48506300
C        5.12734600      -2.36135300       2.74468400
C        6.36400400      -2.46914200       2.15123800
C        6.80479800      -1.47984400       1.31156300
C        6.00574900      -0.39121200       1.07220000
C       -1.14297900      -0.83586700       2.37672400
C       -2.36937400       0.04169700       2.36794300
31
Properties=species:S:1:pos:R:3 energy=0.6599861782999309 pbc="T T T"
O        0.68587800      -0.34647700       0.30008200
C        0.57769500      -1.37297400      -0.41789100
N        1.78007000      -1.79318700      -1.04701500
C        3.01129800      -1.09804600      -0.87220600
N        3.63231300      -0.22472800      -0.40372800
C        4.82170900       0.13699300      -0.46018800
C        5.49707600       1.28068400       0.19038600
C        4.79669500       2.14320200       1.00614100
C        5.37838600       3.21959200       1.63292000
C        6.71545600       3.44321000       1.43625100
C        7.45971200       2.62381800       0.64008500
C        6.83308800       1.55703000       0.03236900
C        5.71024800      -0.71896400      -1.32169400
S        4.39347400      -1.92637300      -1.84626300
C       -0.69268100      -2.05344000      -0.57153300
C       -0.86683800      -3.17894100      -1.34396500
C       -2.09610700      -3.80386400      -1.46827900
N       -3.14040700      -3.27937800      -0.80566300
C       -3.04261100      -2.18337400      -0.03416500
C       -1.79496000      -1.55875000       0.08498800
N       -1.63040300      -0.39992600       0.88428400
S       -3.01309300       0.21824400       1.70620300
O       -2.59859800       1.40843600       2.53163300
O       -3.56346200      -0.81325000       2.65315500
C       -4.27196200       0.70451500       0.59336700
C       -5.25514500      -0.17278300       0.17240700
C       -6.22646100       0.25651000      -0.70548800
C       -6.27099900       1.55382000      -1.20120800
F       -7.24201700       1.95961900      -2.07049700
C       -5.28669000       2.42256000      -0.77635700
C       -4.30066300       1.99622200       0.11146200
30
Properties=species:S:1:pos:R:3 energy=0.6599861782999309 pbc="T T T"
O        0.33447500      -0.33169200      -0.44596900
C        0.62959500      -1.19803200       0.40917900
N        2.02166000      -1.47886400       0.55498500
C        2.99539900      -0.74552700      -0.29289100
N        3.21747100      -0.00870300      -1.06815300
C        4.28563600       0.42211700      -1.61652100
C        4.52341800       1.43094900      -2.67129600
C        3.44022600       2.09094900      -3.23596600
C        3.68903500       3.02109000      -4.21145400
C        4.96585000       3.31279000      -4.63871100
C        6.01602100       2.65265600      -4.07055900
C        5.79796300       1.70454000      -3.07982100
C        5.49445800      -0.23691800      -1.06571600
S        4.70308900      -1.39289900       0.19545100
C       -0.39323800      -1.86337600       1.19257300
C       -0.11609600      -2.81441500       2.13606100
C       -1.15931700      -3.41055000       2.85081200
N       -2.43442300      -3.05073300       2.61246800
C       -2.74350600      -2.11506500       1.68792100
C       -1.71229300      -1.52798100       0.98363300
N       -2.00502100      -0.54532000       0.00940900
S       -3.64796300      -0.11056900      -0.26815700
O       -3.69150700       0.90603000      -1.37143300
O       -4.43720300      -1.34024900      -0.64825100
C       -4.39010000       0.56106100       1.15352400
C       -4.32092800       1.92118000       1.35187800
C       -4.90953800       2.45274000       2.47920100
C       -5.54130000       1.62384300       3.36371900
N       -5.58318400       0.31582200       3.13094900
C       -5.02867700      -0.24487700       2.05500300
25
Properties=species:S:1:pos:R:3 energy=0.1554941257774706 pbc="T T T"
O        3.20635500      -2.67684700       2.19653600
S        2.95459700      -1.89565100       0.94841000
O        2.73707500      -2.88775700      -0.16171900
N        4.34939100      -0.97475100       0.59721300
C        4.40401200      -0.17913800      -0.57925200
N        3.60519700       0.03822000      -1.51822700
C        3.94478200       0.84992700      -2.50304600
C        4.96922400       1.43900400      -2.62730800
S        5.85635100       0.84194800      -1.04008300
C        1.56929800      -0.84100600       1.14583200
C        1.26817600      -0.34302800       2.39053600
C        0.19220000       0.49078200       2.60928000
C       -0.62564400       0.85259600       1.55927100
N       -1.72472300       1.71394500       1.82518300
C       -2.64889600       2.16293200       0.82165200
C       -3.36291000       1.05796900       0.15927300
C       -3.13600000      -0.27331200       0.50093100
C       -3.83656100      -1.25187800      -0.15704500
C       -4.75254800      -0.96024900      -1.13987900
Br      -5.66051800      -2.42744900      -1.97714600
C       -4.96980400       0.33981100      -1.46898200
C       -4.27806500       1.36709900      -0.82405100
O       -4.49386100       2.69980400      -1.15416900
C       -0.32095900       0.35346600       0.32104000
C        0.75383300      -0.48541600       0.07575100
27
Properties=species:S:1:pos:R:3 energy=0.193503800967519 pbc="T T T"
C       -3.67723800      -2.33820500       2.45168500
C       -3.52085800      -2.48545700       0.94537300
N       -3.42339000      -1.17079800       0.34242300
C       -4.48285200      -0.43451800      -0.10051500
C       -5.89910200      -0.85961300      -0.03636900
C       -3.99486000       0.75808600      -0.60974000
C       -4.75262500       1.85751500      -1.19326200
C       -6.22805100       1.78778400      -1.30017000
O       -4.17161300       2.86731800      -1.60858300
C       -2.62419600       0.70594300      -0.45596500
C       -1.70200800       1.80507000      -0.88064300
C       -2.28797100      -0.48212600       0.12901700
C       -0.95582500      -0.96064800       0.47770000
O       -0.76678900      -2.07286300       1.01347100
N        0.17728700      -0.14986900       0.20720600
C        1.50216500      -0.59121800       0.53790500
C        1.66801000      -1.82337000       1.12747500
C        2.93199400      -2.26840700       1.45414000
C        4.05737100      -1.51509100       1.20955000
C        3.86803700      -0.26716200       0.61041200
S        5.22767900       0.76884200       0.25626000
O        6.46380500      -0.00689800      -0.05061500
O        5.49395400       1.75548900       1.60869800
N        4.82120000       1.81518300      -1.05516300
C        3.68108700       1.24673200      -1.74854600
C        5.98571200       1.87956400      -1.94459500
C        2.60907800       0.17871700       0.28383100
26
Properties=species:S:1:pos:R:3 energy=0.6599861782999309 pbc="T T T"
F        5.06964100      -2.95730000       0.84988200
C        4.31575800      -1.93267000       0.39277400
C        4.83407700      -0.85578500      -0.30005800
C        3.99900900       0.15544900      -0.73641700
C        2.63788900       0.14475200      -0.50975800
N        1.80363500       1.20137200      -0.97192100
C        0.42070600       1.19197300      -0.74229800
N       -0.13159800       0.16767700      -0.07349100
C       -1.45492700       0.13225600       0.16119100
C       -2.04545400      -0.98879700       0.89096700
C       -1.28388200      -2.02182900       1.35164000
C       -1.92584400      -3.04113600       2.03226200
N       -3.23871300      -3.06447400       2.25846300
C       -3.99847400      -2.05135500       1.80875800
C       -3.40115000      -1.01452200       1.12546400
F       -4.17133800      -0.00075500       0.67709300
N       -2.19558600       1.15645000      -0.29783200
C       -1.70043700       2.20294600      -0.96991800
C       -2.48566600       3.24269300      -1.43048000
C       -1.90155400       4.29251500      -2.11885400
C       -0.54695800       4.35656700      -2.37479900
C        0.22532600       3.31108300      -1.90889400
C       -0.34743800       2.25912300      -1.22115200
C        2.13794000      -0.93931100       0.18415700
C        2.96616700      -1.95241300       0.62268000
F        2.41887100      -2.99451000       1.30054300
36
Properties=species:S:1:pos:R:3 energy=0.0670352453351762 pbc="T T T"
C       -4.48582800       3.10953000       1.13076800
C       -3.04466100       3.23447100       0.39081500
C       -3.55949900       3.74843500      -0.99589100
C       -2.30578700       4.16287300       0.97966500
N       -1.51140400       5.19687400       1.61722000
C       -2.53741200       1.91180000       0.10556100
C       -3.57622800       0.81812600       0.33127300
C       -3.10747300      -0.35801300      -0.08930400
C       -1.99060300      -0.82627700      -0.62764300
N       -1.88567300      -2.04558700      -1.14134100
C       -3.14359400      -2.41783700      -1.90932900
O       -4.10921400      -1.62727700      -1.95559600
O       -3.21780600      -3.56380200      -2.54324200
C       -2.30586200      -4.62407500      -2.52723300
C       -1.01598900      -4.20605100      -1.95603500
C        0.10346500      -5.03472700      -2.18176400
N        1.24367400      -4.61758800      -1.69394900
C        1.50828700      -3.52587000      -0.99757000
C        2.64539000      -3.13749700      -0.51272900
C        2.88573300      -2.02399800       0.22205300
C        1.75135300      -1.12384500       0.54732500
C        2.16986100      -0.00074600       1.34131800
C        1.76427300       0.70068500       2.33064000
N        2.04180400       1.84262600       2.91581500
C        3.13857600       2.56169500       2.25109300
C        3.49181500       3.79641900       2.77737200
C        4.56596800       4.41450300       2.00508000
C        5.10107000       3.82687400       0.94817100
C        4.73894900       2.59039300       0.47239300
C        3.64032700       1.96229700       1.24656400
C        3.30878000       0.74055300       0.66536600
C        0.62603000      -1.54804000       0.03518600
C        0.39018000      -2.65436300      -0.72460800
C       -0.88345200      -3.01045300      -1.22654400
C       -0.95308100       0.27319700      -0.82879400
C       -1.48197100       1.45469700      -0.40210400
32
Properties=species:S:1:pos:R:3 energy=0.1520387007601935 pbc="T T T"
C        7.98805500      -1.32118800      -1.16494000
N        6.68623000      -0.68927400      -1.26514400
C        6.10928200      -0.40952400       0.02069800
C        5.07756600       0.65866200      -0.12380300
N        4.48185300       0.71829900      -1.44047000
C        3.07083600       0.62955900      -1.54622800
C        2.23551800       0.48998100      -0.46915000
C        0.86740900       0.40371000      -0.56865000
C        0.03450100       0.25571000       0.62096100
N       -1.29977700       0.17126700       0.52783400
C       -2.12251900       0.03423600       1.58299400
N       -3.52570500      -0.05554400       1.49770400
C       -4.26013200      -0.01399600       0.29374000
C       -5.63509600      -0.11174900       0.33756900
C       -6.41223000      -0.07720600      -0.81300900
C       -5.82381700       0.05764300      -2.04928400
F       -6.55436500       0.09555800      -3.20211400
C       -4.44966000       0.15527000      -2.09220400
F       -3.83914700       0.29060800      -3.31496800
C       -3.67161400       0.12116100      -0.94648900
C       -1.53143700      -0.02034800       2.82891800
C       -2.31732200      -0.15878500       3.93562600
C       -1.74550300      -0.21578000       5.19582400
C       -0.35892700      -0.12989100       5.31702000
C        0.44741600       0.00882700       4.22500700
C       -0.14411400       0.06391300       2.97210900
N        0.58314200       0.19964500       1.84815100
C        0.32551500       0.46316500      -1.83388300
C        1.16421800       0.60340900      -2.91665200
N        2.51068300       0.68379900      -2.75961000
C        5.35985600       0.86539000      -2.57823600
C        6.74928500       0.46235100      -2.11932100
30
Properties=species:S:1:pos:R:3 energy=0.1554941257774706 pbc="T T T"
O        2.41337300      -3.35606000       1.70712000
S        2.24970300      -3.00754000       0.23413900
O        2.08130300      -4.35008500      -0.70116900
N        3.58475500      -2.03694000      -0.19056500
C        3.47925300      -0.60050700      -0.12984500
C        2.28477300       0.03753000      -0.06000800
C        2.14699100       1.39480300       0.09545300
C        3.35346000       2.10511400       0.16447900
C        4.54968600       1.48792300       0.09792200
C        5.77248100       2.15923200       0.10451500
C        6.96539100       1.50550500      -0.02976600
C        7.04799500       0.11425000      -0.19031500
C        5.85896900      -0.55083000      -0.19569800
C        4.65904700       0.10947300      -0.05768300
C        0.80270000      -2.01609300       0.03273600
C        0.02160200      -1.75982900       1.11371600
C       -1.15861500      -1.07943000       0.88869900
C       -1.50040600      -0.70297300      -0.37119600
N       -2.76033400      -0.18866700      -0.69336500
C       -3.83700300      -0.45090900       0.36455600
C       -4.90949700       0.48828800      -0.17767600
C       -5.68541800       0.37212900      -1.27077000
C       -6.67931800       1.33392000      -1.49492700
C       -6.90876200       2.40741800      -0.66295700
Cl      -8.24428700       3.50921300      -0.90818100
C       -6.06855500       2.49157800       0.43609400
C       -5.12687000       1.56261200       0.65010700
O       -4.24728700       1.63807000       1.77626800
C       -0.67274400      -0.96903500      -1.44530300
C        0.52761200      -1.64816100      -1.27115100
32
Properties=species:S:1:pos:R:3 energy=0.6599861782999309 pbc="T T T"
C       -2.74317400      -1.24315600      -0.48393500
C       -3.78792000      -0.59216800       0.36269500
C       -5.02186800      -0.23308500      -0.16224900
C       -5.98175400       0.36641600       0.62093900
F       -7.19984900       0.73861200       0.16881000
C       -5.69804200       0.60881900       1.95100100
C       -4.47336000       0.25458400       2.48000300
C       -3.50467400      -0.35021800       1.69037800
S       -1.94173500      -0.81520600       2.31781100
O       -1.73244800      -2.30319500       2.22586800
O       -1.89896900      -0.39068000       3.76551200
N       -0.72728400       0.03297200       1.43003100
C       -0.73534000       1.45280200       1.49231300
C       -1.65952500       2.16877400       2.22233900
N       -1.67695100       3.49470800       2.28798200
C       -0.74100400       4.17750300       1.60431400
C        0.21597800       3.53524400       0.85229700
C        0.22007600       2.14196500       0.79411400
C        1.21255100       1.42334800       0.01223000
O        1.16862400       0.17570300      -0.00364000
N        2.21538700       2.11482500      -0.72188700
C        3.20272000       1.31512400      -1.50303000
N        3.16694900      -0.07649600      -1.53073000
C        3.99207400      -0.75545400      -2.18393300
C        4.04845100      -2.25672800      -2.28588500
C        5.01352200      -2.84641100      -3.04180700
C        5.08646100      -4.24489600      -3.15235200
C        4.16898900      -5.00251800      -2.48571800
C        3.19512700      -4.43692700      -1.72407100
C        3.13742500      -3.03393800      -1.62491900
C        4.99281200       0.00471000      -2.91373200
S        4.48674900       1.74944500      -2.46075000
35
Properties=species:S:1:pos:R:3 energy=0.1520387007601935 pbc="T T T"
C       -8.83705000       1.95021700      -1.35921300
C       -7.65844500       1.04140400      -1.42316700
C       -6.68761000       1.27955300      -2.38383400
C       -5.57791000       0.46355200      -2.48093800
C       -5.40907700      -0.60211600      -1.62959900
S       -4.02203500      -1.67358000      -1.70370100
O       -3.58540400      -1.85620700      -3.10581400
O       -4.46039800      -3.01444100      -1.17183200
N       -2.74584300      -1.06939600      -0.68175100
C       -3.02658300      -0.96228300       0.70748000
C       -4.25907900      -1.31292700       1.25294800
N       -4.53607800      -1.21532800       2.55907300
C       -3.57644400      -0.75719700       3.37782100
C       -2.33247000      -0.39486300       2.88411700
C       -2.04166900      -0.49336200       1.53911200
C       -0.75136900      -0.12427900       0.98263300
O       -0.56023700      -0.24215600      -0.25117300
N        0.32144000       0.36939700       1.76680100
C        1.58902400       0.72665400       1.18253300
C        2.53184200       1.20087200       2.07824100
C        3.80179800       1.58053200       1.62507200
C        4.05852400       1.46260300       0.28700900
S        5.68704700       1.95682900      -0.25708000
O        6.01384500       3.17820400       0.64698600
O        5.43742500       2.61878000      -1.63986100
N        6.74760900       0.82619000      -0.19559700
C        7.64201500      -0.14021800      -0.07938300
N        8.07580100      -0.81480000       1.01257400
C        8.95022900      -1.71461800       0.89285300
C        9.50940600      -2.09040900      -0.19044400
S        8.61858100      -0.91901800      -1.35331200
C        3.11463300       0.99032100      -0.59325800
C        1.85187200       0.61284700      -0.14302300
C       -6.38925800      -0.83106400      -0.67025800
C       -7.49413100      -0.02969700      -0.56341400
25
Properties=species:S:1:pos:R:3 energy=0.0691085003455425 pbc="T T T"
C       -4.86236600      -3.45602700       1.01444200
C       -4.76108500      -1.97344000       1.00440800
C       -5.62503900      -1.19457200       1.74219900
C       -5.50405400       0.17881500       1.71088700
C       -4.50756500       0.77841100       0.93267600
C       -3.63684300       0.00882300       0.18985500
N       -2.60433600       0.55853800      -0.61996300
C       -2.76529500       1.19948000      -1.81432300
N       -1.57305900       1.58167400      -2.29043600
C       -0.67118900       1.17823100      -1.39193400
C        0.70023200       1.32641100      -1.40990700
C        1.47810800       0.84354700      -0.38977600
C        2.93085100       1.02903900      -0.46067100
O        3.44685600       1.62347400      -1.44649400
N        3.78818500       0.55598300       0.55625600
C        3.11765500      -0.11225100       1.64782600
C        3.64077300      -1.51071500       1.76277200
C        4.78094000      -1.81119200       0.83927200
C        6.10253300      -1.28314300       1.36867700
C        6.04690900       0.24255300       1.44661700
C        5.18977100       0.80619800       0.35845300
C        0.87038200       0.20665600       0.65635100
C       -0.51826200       0.03931800       0.70598200
C       -1.28939200       0.53574900      -0.33756700
C       -3.77470900      -1.35156000       0.23547100
21
Properties=species:S:1:pos:R:3 energy=0.5217691776088459 pbc="T T T"
F       -6.39617100      -0.59535000       0.38184800
C       -5.09593700      -0.60737000      -0.02582500
C       -4.76789500      -1.07579100      -1.27815200
C       -3.41237400      -1.06330900      -1.64137400
C       -2.45022800      -0.60224200      -0.78227900
N       -1.09946800      -0.59893000      -1.16677300
C       -0.09958600      -0.11486400      -0.26189900
N       -0.44914100       0.34149100       0.96683200
C        0.44452500       0.80715600       1.85710700
C        1.77776200       0.81475800       1.48826000
C        2.16895500       0.35824500       0.24703400
C        3.56757300       0.36161200      -0.15129700
C        4.50924100       0.83135600       0.73496200
C        5.85339400       0.87023300       0.44013400
N        6.29205400       0.43978400      -0.75042800
C        5.40466400      -0.02670000      -1.64441700
C        4.03048200      -0.07777200      -1.37098200
N        1.20051100      -0.08870000      -0.57526400
C       -2.82215300      -0.14543000       0.45412500
C       -4.15462500      -0.14242500       0.84890700
F       -4.50158400       0.31425000       2.07771700
34
Properties=species:S:1:pos:R:3 energy=0.6599861782999309 pbc="T T T"
O        1.02703100       0.28770700       1.48581200
C        1.22780800       0.48857700       0.28053500
N        2.56119800       0.49107300      -0.15202300
C        3.74296800       0.28541100       0.69516700
N        4.90178700       0.18863400       0.23158700
C        5.98026400       0.04873300       0.93346700
C        7.37128700      -0.09361000       0.41405200
C        7.47873300      -0.19516900      -0.98255200
C        8.74524900      -0.32168400      -1.59482700
C        9.87182500      -0.34202800      -0.81281500
C        9.72242400      -0.24436500       0.53209000
C        8.46483100      -0.11716800       1.16956800
C        5.76685300       0.01175800       2.36050700
S        3.89080900       0.20492800       2.40626400
C        0.19442100       0.72644700      -0.75989200
C        0.58342100       1.05745000      -2.04636900
C       -0.40210200       1.31712300      -3.02475400
N       -1.67643900       1.23649900      -2.65753900
C       -2.06613800       0.91680500      -1.40602900
C       -1.13438400       0.65032100      -0.42838200
N       -1.43358400       0.23878300       0.88771800
S       -2.55764600      -1.00614300       1.11559700
O       -2.57933800      -1.46920200       2.57025100
O       -2.04629700      -2.24119200       0.28945600
C       -4.16744100      -0.74753100       0.59241000
C       -5.07390800       0.04639500       1.29387000
C       -6.37570700       0.13949400       0.88137500
C       -6.85682700      -0.52270900      -0.21273100
C       -8.30221000      -0.43100800      -0.61895900
F       -8.54286800       0.79446300      -1.21168700
F       -8.67675700      -1.45384100      -1.42142000
F       -9.00477900      -0.41886700       0.60991300
C       -5.97529200      -1.29644300      -0.90350500
C       -4.65919300      -1.40988800      -0.51615600
30
Properties=species:S:1:pos:R:3 energy=0.1485832757429163 pbc="T T T"
C        3.32563700      -1.94025300       1.66488800
O        2.73900400      -0.91005600       0.94140700
C        1.38509100      -0.82843200       0.64034700
C        0.46999100      -1.78127000       1.03775400
C       -0.87504100      -1.69117100       0.73329500
C       -1.35651500      -0.63069200       0.01136600
N       -2.73250400      -0.47393500      -0.33862100
C       -3.69266300      -1.44472500       0.06099600
O       -3.28858900      -2.41486700       0.71459200
C       -5.08487600      -1.24325200      -0.31867900
C       -6.01687700      -2.18225600       0.06717300
C       -5.66180900      -3.39105400       0.85382800
C       -7.36332100      -2.01955400      -0.28087300
C       -7.75421600      -0.91952100      -1.00938300
C       -6.84265900       0.01954700      -1.39908500
C       -5.50836200      -0.15619100      -1.04553400
C       -4.50892900       0.85752700      -1.46333400
C       -0.45306700       0.33110700      -0.39355400
C        0.90101000       0.23929900      -0.08639200
S        2.05524100       1.45368400      -0.59512300
O        3.03043400       0.75066100      -1.52772000
O        1.22905300       2.64299400      -1.45812800
N        2.88217200       2.15513200       0.71882100
C        4.29743500       2.05336200       0.79105500
C        4.96952300       2.62118600       1.85513300
C        6.33997900       2.52131200       1.92285400
C        7.08123500       1.86963100       0.96060600
Br       8.97382800       1.81047500       1.18575900
C        6.42146100       1.30883500      -0.08961600
C        5.03833600       1.39247800      -0.18663400
31
Properties=species:S:1:pos:R:3 energy=0.6599861782999309 pbc="T T T"
C       -7.72732000      -2.49620900      -0.31630100
C       -8.21391500      -1.09308600      -0.44366600
O       -9.41756200      -0.87063100      -0.61718300
N       -7.27259100      -0.00782100      -0.36283500
C       -7.57911300       1.38919600      -0.46515400
C       -6.27716200       2.02082400      -0.92972800
C       -5.21328900       1.06025100      -0.48327200
C       -3.83465900       1.19605800      -0.36918700
C       -3.06843000       0.14709100       0.07289100
C       -1.58048500       0.28557900       0.19840500
N       -0.70059100      -0.57125300      -0.19148000
C        0.52109500      -0.52561900      -0.12208000
N        1.63157300      -1.31070100      -0.46765100
C        2.95634600      -0.88138600      -0.20459400
O        3.12750000       0.21564700       0.34435700
C        4.06250800      -1.79227500      -0.61253500
C        5.34442400      -1.14179500      -0.24178200
C        5.93851900      -1.33674100       0.98659500
C        7.12421900      -0.72407800       1.30608800
C        7.73536800       0.10994600       0.36774700
C        7.15704300       0.32039400      -0.87203200
C        5.96222600      -0.32075900      -1.14337200
O        7.97116300       1.19430100      -1.61734700
C        9.18583300       1.36009200      -0.90306200
O        8.90951100       0.85668500       0.38604500
S        0.72796000       1.13231500       0.70553800
C       -1.08080300       1.43754000       0.78709300
C       -1.72389400       2.63825200       1.35607300
C       -3.71526200      -1.02295400       0.39195900
C       -5.08176700      -1.16766600       0.28228300
C       -5.86844600      -0.10119600      -0.16808700
32
Properties=species:S:1:pos:R:3 energy=0.6599861782999309 pbc="T T T"
O       -1.98553900       3.82217900       1.52030200
S       -1.36221700       2.69641900       2.30663700
O       -0.86858200       3.16992000       3.64522000
N       -2.50564800       1.43603900       2.58846000
C       -3.12842400       0.77476500       1.48306800
C       -3.62780200       1.48440200       0.41182800
C       -4.22927600       0.84258200      -0.65526100
C       -4.35538400      -0.53051900      -0.69430500
C       -5.00973200      -1.20050100      -1.85938700
C       -6.28182000      -0.40480400      -2.18372400
C       -7.00850300      -0.14781300      -0.87333600
N       -7.23604800      -1.41693800      -0.21850900
C       -6.96014100      -2.54031400      -1.12181600
C       -5.47482700      -2.58855800      -1.46198500
C       -3.85422700      -1.23684000       0.37987800
C       -3.25220600      -0.59728100       1.44836500
C       -0.02489900       1.99051600       1.41308700
C        1.06432700       1.43778500       2.05368000
C        2.10486200       0.88811400       1.33324500
C        2.10427000       0.86580900      -0.05852900