18
Properties=species:S:1:pos:R:3 energy=-1.098712293668443 pbc="T T T"
C       -4.31285000       2.31181300       1.25522800
O       -4.47565100       0.96335300       0.85954400
C       -3.37666300       0.20825400       0.40297400
C       -3.53702000      -1.10520000       0.01790700
C       -2.45385200      -1.83318500      -0.42693800
C       -1.18558600      -1.29391100      -0.50625700
N       -0.00020200      -1.79267100      -0.89858900
C        0.91808500      -0.81707000      -0.77038800
C        0.32521000       0.32518800      -0.29089400
C        0.92525900       1.65041100       0.01111000
C        2.40088000       1.66343900      -0.27644200
N        3.03867500       0.65644200       0.54974600
C        4.44284400       0.44431200       0.48681700
C        5.11385500      -0.56971600       1.31339700
O        5.09963900       1.17730900      -0.32376500
C       -1.01162000       0.03481100      -0.11903500
C       -2.10886200       0.74544700       0.32308600
H        0.19785900      -2.76902600      -1.24749000
44
Properties=species:S:1:pos:R:3 energy=0.15443635330441896 pbc="T T T"
C       -1.28158600       2.32013300      -2.77596900
C       -2.16735500       3.27744400      -2.03207800
C       -1.44704300       3.84454200      -0.82388300
N       -1.09116500       2.80062600       0.12082900
C        0.16982200       2.17072900      -0.26031700
C        1.30542500       3.09703200      -0.10756600
O        1.06722800       4.25937500       0.31090000
N        2.61444200       2.66961000      -0.42855800
C        3.79480000       3.49246000      -0.32230600
C        4.68251000       2.93027200      -1.42626200
C        6.13771200       2.97681100      -1.07227700
C        4.35164600       3.61234000      -2.72724600
C        4.23011400       1.49869100      -1.51189900
N        4.76419400       0.39996600      -2.02643000
N        4.19706900      -0.79842000      -2.00275500
C        2.98954400      -0.98567600      -1.42965100
C        2.32295400      -2.32016400      -1.38418500
C        2.75919000      -2.97855100      -0.10814000
C        1.92291100      -3.05277000       0.97663500
C        2.33378600      -3.65288900       2.13119000
C        3.59640000      -4.20521600       2.25432200
F        4.01230800      -4.80650100       3.40773700
C        4.40956100      -4.11191800       1.14355800
C        4.01411000      -3.51510100      -0.01872600
F        4.82275500      -3.42998100      -1.10693700
C        2.39374800       0.13861500      -0.87797500
C        2.98085100       1.38503200      -0.90125900
C       -2.08095200       1.76675600       0.15705000
C       -2.22188700       1.15181000       1.53104600
N       -3.25021200       0.09617800       1.51424700
C       -4.65273500       0.28193900       1.77350000
C       -5.28496200      -1.04234200       1.64076400
C       -6.63066300      -1.41146400       1.78974300
F       -7.53864600      -0.43150100       2.10438000
C       -7.02606800      -2.71972800       1.62380100
C       -6.06286700      -3.65962500       1.30661000
C       -4.73798100      -3.28009200       1.16278500
C       -4.32718800      -1.97404200       1.32592900
C       -3.05256400      -1.28030300       1.24326500
O       -1.92382800      -1.79554200       0.97353900
C       -3.40899000       2.35638000      -0.24918500
N       -3.44213600       2.67221700      -1.66743200
H       -2.40439200       4.13512100      -2.69600300
H       -1.83985900       0.90987500      -0.53478800
35
Properties=species:S:1:pos:R:3 energy=-3.101092789211817 pbc="T T T"
O       -4.09817900       1.39533000       2.28392700
C       -4.45792000       0.93644400       1.15408200
N       -5.25046300       1.65433400       0.34186200
C       -5.46584300       0.93548700      -0.76589400
C       -6.18887000       1.14635300      -1.93177000
C       -6.22171300       0.17980500      -2.92445700
C       -5.53311500      -0.98900000      -2.74607600
C       -4.80975200      -1.22232400      -1.59984900
C       -4.77979900      -0.25151000      -0.60918100
N       -4.16904800      -0.22745400       0.57450300
C       -3.32738800      -1.24573400       1.17961300
C       -2.52535200      -0.67343400       2.33109900
C       -1.60108900       0.37125600       1.81408200
N       -0.77836100      -0.01597900       0.71998900
C        0.06727300       1.06260000       0.24300800
C        1.10200600       1.36288600       1.29860000
C        1.92803500       0.08435700       1.50036100
C        2.54187300      -0.20275500       0.14009700
C        3.38692700      -1.42228000       0.15550500
C        3.97419400      -1.91431400       1.29110300
C        4.75766200      -3.05276700       1.23609600
C        4.98811900      -3.74602700       0.05475300
F        5.76407000      -4.86408000       0.03082500
C        4.38815100      -3.23656500      -1.08391500
C        3.59905900      -2.09061700      -1.03136400
C        3.47642500       0.93480400      -0.14702800
C        3.70356200       1.27671100      -1.45771400
C        4.56091600       2.31925500      -1.81308900
C        5.20282400       3.03018200      -0.82126400
F        6.04354100       4.04760100      -1.11260000
C        4.97984400       2.69206500       0.49693000
C        4.11775400       1.64623000       0.84256800
C       -1.39411200      -0.74522800      -0.33393000
C       -2.33788200      -1.79583700       0.16276400
H       -5.64334800       2.62020200       0.52636100
44
Properties=species:S:1:pos:R:3 energy=-0.7620686260263672 pbc="T T T"
C       -4.89181700      -1.98547200      -3.12327300
C       -4.32799600      -0.84441900      -2.26169000
C       -2.89735200      -1.03662400      -1.95453600
N       -2.44137100      -0.58718700      -0.66341500
C       -1.02512900      -0.83640600      -0.48341600
C       -0.68463500      -2.26891700      -0.41072200
O       -1.59213500      -3.12624500      -0.50801200
N        0.64334200      -2.70713200      -0.23426600
C        1.12688300      -4.07098500      -0.14558800
C        2.52985500      -3.96947600      -0.70251100
C        3.44484300      -4.94711600       0.00108200
C        2.55803900      -4.21049800      -2.19550500
C        2.92314700      -2.57512400      -0.38174400
N        4.14125100      -1.98109800      -0.32760000
C        4.24909200      -0.68795800      -0.01084200
C        3.13205400       0.07820600       0.26860500
C        3.31783500       1.51548600       0.61688300
O        2.50998600       1.80409200       1.70201500
C        4.75671900       1.76353500       0.98494100
C        5.25201900       1.32342700       2.18427200
C        6.56294400       1.52779800       2.55812200
C        7.41255700       2.19480500       1.70607200
F        8.69514500       2.41217800       2.03505000
C        6.94775600       2.64853200       0.49777400
C        5.61472300       2.43228100       0.13543600
C        1.90550100      -0.51793900       0.21463900
C        1.77076900      -1.85625900      -0.11145200
C       -3.27315300      -0.92551200       0.42006800
C       -3.49382400       0.08082100       1.49704600
N       -4.08947400       1.26461800       1.00975400
C       -4.49108000       2.16664500       2.10179400
C       -5.01568000       1.33512300       3.21988800
C       -5.64150600       2.98576900       1.49956600
O       -5.34061500       3.33071600       0.17914400
C       -3.98273800       3.38121300      -0.08081600
C       -3.30758100       2.02245500       0.04614900
C       -1.89125500       2.25642800       0.45095700
C       -4.62404900      -1.48292500      -0.03399100
N       -5.15487600      -0.69037700      -1.10687800
H       -4.49896500       0.06352900      -2.91558800
H        3.06526400       2.11864500      -0.27281800
H       -2.79645600      -1.81781800       0.94268000
H       -3.71231200       2.85938500       2.40227500
H       -3.38572400       1.55979900      -0.93922800
42
Properties=species:S:1:pos:R:3 energy=-0.2876820724517809 pbc="T T T"
C       -2.96053800      -1.72481200      -2.70210200
C       -3.27414400      -1.57786100      -1.21577200
C       -2.14790300      -0.84122600      -0.59989500
N       -1.70447900      -1.21929100       0.67355000
C       -0.93863000      -0.19500100       1.28720800
C        0.38065000       0.09399000       0.72716200
O        0.99543200       1.06038400       1.33585700
N        1.01443100      -0.55015100      -0.35868300
C        0.48746700      -1.65820500      -1.10682200
C        1.72684500      -2.45340900      -1.43637200
C        1.55065400      -3.27152300      -2.69502200
C        2.05814100      -3.36360700      -0.27262600
C        2.74705000      -1.39197100      -1.60345300
N        3.93848000      -1.37382800      -2.24202300
C        4.67360500      -0.25446000      -2.22798800
C        4.26368900       0.88775700      -1.58538100
C        5.09664800       2.13572800      -1.57313500
C        5.96912300       2.08430800      -0.37048300
C        7.20750400       1.49649400      -0.45560700
C        8.01210000       1.45550000       0.67840800
C        7.61947000       1.97742500       1.87672300
F        8.39213100       1.94492700       2.99022300
C        6.36858900       2.56762100       1.95055000
C        5.55294900       2.61720400       0.82845800
C        3.04890700       0.89485800      -0.92506300
C        2.28486300      -0.27706000      -0.94281300
C       -2.54738700      -1.99384400       1.49283600
C       -3.23643200      -1.14108000       2.53408900
N       -4.03357100      -0.13850000       1.84226100
C       -3.47684600       1.14978000       1.49462700
C       -4.59895600       1.83069900       0.81628000
C       -4.61698700       3.11005400       0.26595900
C       -5.75159800       3.58553000      -0.32689200
C       -6.89322500       2.78504300      -0.37946000
C       -6.87236200       1.50540600       0.17192700
C       -5.71883200       1.02972800       0.77131000
C       -5.37687300      -0.21713700       1.41583700
O       -6.14770600      -1.20050300       1.56802900
C       -3.60712200      -2.76457600       0.76837400
N       -3.35124000      -2.88718300      -0.64685400
H       -4.21382700      -0.99200000      -1.11046700
H       -1.92007000      -2.72520900       2.06869700
20
Properties=species:S:1:pos:R:3 energy=-0.18632957819149348 pbc="T T T"
C        6.37923100      -0.62920400       0.09959000
C        4.92324100      -0.95126500      -0.18428800
C        4.13337900       0.29863300      -0.03640700
O        4.67619200       1.39049600       0.27542300
N        2.71675500       0.24092100      -0.25852200
C        1.97764900       1.49346800      -0.10256800
C        0.52068500       1.17886600      -0.38509000
C        0.05297500       0.13776400       0.60899300
C        0.87868000      -1.09855800       0.46278600
C       -0.03641100      -2.27031600       0.32639500
C       -1.35491500      -1.65443900       0.04352500
C       -2.52927100      -2.24571400      -0.33098700
C       -3.62667400      -1.47077700      -0.53822600
C       -3.61710700      -0.09357000      -0.38761400
C       -2.43416400       0.49501500      -0.01111700
C       -1.30428000      -0.29956400       0.20261300
C       -2.65650300       1.96542600       0.08812200
C       -4.16169800       2.05311600       0.15335700
O       -4.61470600       0.88749400      -0.54626600
H        0.07694300       0.57220800       1.63251500
42
Properties=species:S:1:pos:R:3 energy=-2.319426110190072 pbc="T T T"
C       -2.13804500      -3.24118200      -2.56763300
C       -2.78450000      -2.09827400      -1.77432800
C       -1.70301300      -1.14915000      -1.39944700
N       -1.93519700      -0.34444600      -0.25444700
C       -1.21528600       0.82436400      -0.07291600
C        0.18656000       0.67797500       0.21679300
O        0.85772800       1.76452400       0.36840100
N        0.91077600      -0.50880000       0.35489100
C        0.37777100      -1.85606500       0.26919600
C        1.53470800      -2.60528100      -0.35878600
C        1.44679000      -2.39863700      -1.87285600
C        1.53182600      -4.07260500      -0.01778500
C        2.70963100      -1.89314100       0.19856200
N        4.02340400      -2.21577400       0.36641400
C        4.89184300      -1.35556200       0.91315900
C        4.54312400      -0.09125000       1.34724300
C        5.55588100       0.82548500       1.95135400
C        6.22972000       1.66599500       0.92456300
C        5.70269600       2.89887900       0.57980600
C        6.31864900       3.68556500      -0.36860800
C        7.46761100       3.29797800      -1.01265400
F        8.06191900       4.08964700      -1.94689800
C        7.98491300       2.05635100      -0.65529200
C        7.38245800       1.25873000       0.28955500
C        3.21606800       0.26505500       1.19000800
C        2.33943000      -0.63730100       0.62425700
C       -2.64140300      -0.91851500       0.82511900
C       -3.80604300      -0.14123500       1.25654400
N       -4.87530000       0.13377700       0.41399000
C       -4.56347300       1.06366200      -0.63053000
C       -4.19424100       2.40429200       0.02460400
C       -5.86594700       1.38679700      -1.39887100
O       -6.89335000       0.57723900      -0.92572100
C       -7.21293100       0.84979700       0.40386100
C       -5.94801600       0.74882700       1.21087600
C       -6.14710800       0.03067600       2.52330400
C       -2.95250000      -2.39570900       0.60259100
N       -3.57553600      -2.60074900      -0.69043300
H       -3.48901400      -1.59847700      -2.49977300
H       -1.91959700      -0.93525000       1.70627200
H       -3.78679200       0.75575100      -1.33615400
H       -5.62621500       1.79603500       1.45809700
32
Properties=species:S:1:pos:R:3 energy=-2.4849466505880216 pbc="T T T"
C       -5.91748500      -1.75089600       1.97016700
O       -4.85881300      -1.20679700       1.21320300
C       -4.98140800       0.08855600       0.69860600
C       -6.12020500       0.84127900       0.92117800
C       -6.19415000       2.13452000       0.38487500
N       -7.33230500       2.95940600       0.58174000
C       -5.16499900       2.66478300      -0.35215000
Cl      -5.26565500       4.28219100      -1.01222400
C       -4.05898700       1.86516500      -0.53840000
C       -3.94221800       0.58348500      -0.02741400
C       -2.69584400      -0.13714500      -0.29155200
O       -1.80889000       0.43539100      -0.99865600
N       -2.39349000      -1.42217000       0.17735600
C       -1.19386300      -2.13860500      -0.06123700
C       -0.62016600      -2.87787000       1.08456200
C        0.74588100      -2.30189000       1.41361600
N        0.75415500      -0.86145000       1.27039800
C        1.89854400      -0.21785900       1.85950300
C        3.12271500      -0.59393600       1.01112900
C        2.93500400      -0.14412400      -0.40671800
O        3.99996300      -0.41349300      -1.25478900
C        5.25245800       0.14297800      -0.97133000
C        6.33187100      -0.09698700      -1.79346800
C        7.58141400       0.44654700      -1.53157300
C        7.73176500       1.24786000      -0.41187800
F        8.92909200       1.80816600      -0.10744800
C        6.65400100       1.47883700       0.39675600
C        5.40037200       0.93166700       0.13114300
C        0.57613300      -0.47130400      -0.12074300
C       -0.17725300      -1.50288900      -0.93013700
O        0.72773100      -2.41241900      -1.48260700
C        0.08463500      -3.36099700      -2.26863800
29
Properties=species:S:1:pos:R:3 energy=0.7807000775678068 pbc="T T T"
C        7.00721100      -1.08124000       0.32209800
C        5.77390400      -0.25358300       0.11176900
C        5.86649800       0.98939000       0.93887500
O        4.66302400      -1.02942300       0.38433000
P        3.23427100      -0.12303400       0.15661700
O        3.36324100       1.11610000       0.97928100
O        3.09826200       0.17434300      -1.49054000
C        1.85485600       0.72086700      -1.83108600
C        0.93086200       0.51696000      -0.68843100
O       -0.41002300       0.72974500      -0.99033600
C       -1.00807200       0.20019700       0.17783200
N       -2.43328500       0.25584900       0.13343700
C       -3.21655800      -0.84005700       0.27519500
C       -4.56786900      -0.68193800       0.21758100
C       -5.13476500       0.55433500       0.02085700
O       -6.38772400       0.69403900      -0.03154000
N       -4.34927000       1.62532400      -0.11717300
C       -3.01889900       1.45276300      -0.05796000
O       -2.29732700       2.49889300      -0.19394400
C       -0.44237100      -1.17703300       0.20862200
C       -1.20684500      -2.22626200      -0.56239600
C       -0.70185300      -3.04955200       0.60459300
O       -0.53931600      -1.88496400       1.37847500
C        0.95412500      -0.97736600      -0.33963700
O        1.92806700      -1.09803700       0.66611700
H        1.15600500       1.11880300       0.20993600
H       -0.55841600       0.77289000       1.01958400
H       -4.73647200       2.60248000      -0.27114100
H        1.17873900      -1.60049000      -1.20862300
24
Properties=species:S:1:pos:R:3 energy=1.0986122886681098 pbc="T T T"
C        7.66946800      -0.68961600       1.24690800
C        6.26772900      -0.17606500       1.25181700
S        5.47439400      -0.65189700      -0.26810200
O        5.48543300      -2.16406300      -0.38360600
O        6.26105700      -0.08548500      -1.40202100
C        3.82255000      -0.06983600      -0.30826600
C        3.53902400       1.16594800      -0.83078600
C        2.25823300       1.67817400      -0.88959100
C        1.24316500       0.87726700      -0.38835100
O       -0.04767400       1.05471200      -0.29382400
C       -0.66004700       0.03805700       0.25073200
C       -2.08226900      -0.14561300       0.52700200
C       -2.57432600      -1.29201100       1.11411100
C       -3.92128100      -1.44897800       1.36805900
C       -4.83915800      -0.46756000       1.04708200
C       -6.18932000      -0.61717100       1.29812200
C       -7.10252100       0.36529900       0.97602600
C       -6.61263400       1.51328200       0.38849500
C       -5.26308500       1.65884200       0.13937700
C       -4.34434800       0.67964500       0.45923500
C       -2.99631500       0.83653600       0.20517200
N        0.30749600      -0.85190900       0.52349700
C        1.50144500      -0.36581400       0.14090400
C        2.80298400      -0.84174500       0.18041900
40
Properties=species:S:1:pos:R:3 energy=-0.6286711613755805 pbc="T T T"
C       -8.45545900      -1.24309600       2.73060100
C       -7.45032700      -1.22793500       1.65264100
C       -7.45070300      -2.00161500       0.57549700
C       -8.45220200      -3.03139600       0.23566500
C       -6.27897300      -1.66237100      -0.22676100
O       -5.98867100      -2.21056200      -1.30662600
N       -5.54880900      -0.62749300       0.42007900
C       -4.33137100       0.03086700       0.02124500
C       -3.11110400      -0.70314100       0.58118000
C       -3.15762800      -2.10842200       0.02421800
N       -2.23422400      -2.27537900      -1.07018700
C       -2.29490900      -1.17829900      -2.01353600
C       -1.14703700      -1.34982700      -2.98791800
C       -2.07720700       0.15825300      -1.32430200
N       -1.88783200      -0.08764400       0.09390100
C       -0.81886800      -0.97418500       0.34075700
C        0.53968600      -0.54833500       0.09863200
O        1.46890200      -1.37110400       0.30424500
N        0.87755400       0.73871100      -0.35315700
C        0.01983000       1.87677600      -0.62521700
C        0.87008600       3.02319500      -0.13302900
C        0.77187500       3.19440900       1.36532500
C        0.42518500       4.26718000      -0.87921900
C        2.23776000       2.60294900      -0.52869900
N        3.37807200       3.29794100      -0.75918700
C        4.48204900       2.62721700      -1.10170300
C        4.50153100       1.25760500      -1.22856900
C        5.80469900       0.62607900      -1.61667500
C        6.59971000       0.31910600      -0.37494900
C        7.48785100       1.22620100       0.14818000
C        8.17951200       0.89017900       1.28181000
C        7.99662300      -0.32279100       1.88965700
F        8.69206700      -0.62303600       3.00419500
C        7.10675700      -1.21243900       1.35235400
C        6.39547600      -0.90928400       0.21585800
C        3.36149700       0.54145700      -1.00028400
C        2.21430400       1.23184100      -0.64513400
C       -6.27529100      -0.31722900       1.63550500
H       -3.17101100      -0.68604200       1.68222700
H       -3.27940100      -1.23834200      -2.50952500
43
Properties=species:S:1:pos:R:3 energy=0.15443635330441896 pbc="T T T"
C       -1.68639500      -1.82978000       3.11796100
C       -2.43255500      -1.15036800       1.96893700
C       -1.69612700      -1.46558900       0.66446000
N       -1.55349800      -0.21102500      -0.06669200
C       -0.74912300       0.73172500       0.63863000
C        0.65843500       0.38635400       0.68371200
O        1.46457500       1.15341600       1.35385900
N        1.22371400      -0.72459500       0.04918500
C        0.60398800      -1.66559200      -0.82656600
C        1.51899200      -2.87162200      -0.87655800
C        0.94026800      -3.89768400       0.09774500
C        1.69011600      -3.42756300      -2.25898800
C        2.82015800      -2.34400500      -0.36352000
N        4.06185300      -2.83763600      -0.33048300
N        5.11047800      -2.21339900       0.17184700
C        4.94244700      -0.99932100       0.68973800
C        6.04787900      -0.22930700       1.27032700
C        6.78187300       0.59610700       0.30445300
C        6.45163200       1.96136000       0.30713600
C        7.03912600       2.85718400      -0.54990300
C        7.98112600       2.41019200      -1.44141200
F        8.53275200       3.31121200      -2.27188200
C        8.31705400       1.05134800      -1.45151900
C        7.71787900       0.16942900      -0.58596200
F        8.03651600      -1.14609200      -0.57967400
C        3.69745800      -0.43415700       0.68771600
C        2.62039400      -1.09673700       0.16253400
C       -2.89488800       0.37288500      -0.12494900
C       -3.97471600      -0.65463300      -0.34723600
N       -5.24937900       0.08194600      -0.37375900
C       -6.02429300       0.35831000       0.79154700
C       -7.15417100       1.20487700       0.35227700
C       -8.18437800       1.80587200       1.10379400
C       -9.13146500       2.53221800       0.42330000
C       -9.08545600       2.67627400      -0.95581600
C       -8.07511800       2.08647100      -1.68174700
C       -7.11129300       1.35028600      -1.00752400
C       -5.92392100       0.64948000      -1.47585900
O       -5.53484600       0.54874300      -2.67463400
C       -3.08134600       1.06009800       1.23254300
N       -2.38671100       0.26115100       2.22481600
H       -3.44028700      -1.55733700       1.89263100
H       -2.88874200       1.13950400      -0.91494400
41
Properties=species:S:1:pos:R:3 energy=-2.4849466505880216 pbc="T T T"
H        2.11921300       4.20433900       0.86707800
C        2.79618400       3.38866900       1.21940400
H        3.43235800       3.66646000       2.05932800
O        3.56569800       3.07504000       0.07662700
C        1.96143700       2.15056000       1.50154900
C        1.01658800       1.70958100       0.41579200
H        0.34324100       2.59435400       0.23854100
H        1.62005100       1.53811500      -0.48497700
O        0.30552800       0.58509400       0.73645800
C       -0.58618400       0.13976000      -0.19112200
C       -1.55084400       1.22873700      -0.53615800
C       -1.89886400       1.61114300      -1.79276200
C       -2.78058100       2.63310200      -2.01824100
C       -3.36698000       3.33376400      -0.96516900
Cl      -4.47945800       4.68948000      -1.25837700
C       -3.02929600       2.96495300       0.30476100
C       -2.14464600       1.93461300       0.50786700
C       -1.36534300      -0.96846600       0.49318300
C       -1.98842000      -0.93657100       1.74096400
F       -1.92689700       0.15863900       2.53758100
C       -2.66520500      -2.07475700       2.12569300
C       -2.72623600      -3.19100000       1.32227100
C       -3.46634300      -4.40472400       1.77919600
C       -3.14283400      -4.65904800       3.22182700
C       -3.00726200      -5.59521700       0.92876600
O       -4.80888700      -4.21605600       1.55324100
C       -2.10324200      -3.19797500       0.09720900
C       -1.40721000      -2.05527800      -0.32286800
C       -0.63269500      -1.81899600      -1.52567500
O       -0.46968500      -2.61407600      -2.49258100
N       -0.09496900      -0.48813600      -1.37751000
C        0.80482500      -0.00794000      -2.42247200
C        2.20140300      -0.50693500      -2.22719900
C        2.41160600      -1.65103400      -1.44317000
C        3.68978800      -2.15068700      -1.23512200
C        4.77737900      -1.52796800      -1.79214500
Cl       6.43176600      -2.12460100      -1.55170500
C        4.54320200      -0.39695300      -2.56252300
N        3.28635000       0.07329500      -2.75515600
C        2.69312800       1.05859200       2.29014800
C        1.64233700       1.84812600       2.93744700
44
Properties=species:S:1:pos:R:3 energy=-0.4833725969846899 pbc="T T T"
C        1.23478000      -4.81605900       0.71910000
C        1.66955200      -3.36288000       0.77805200
C        0.56344900      -2.45458000       1.22796700
N        1.00807400      -1.12510000       1.33029000
C        0.19007900      -0.15040500       1.90194800
C       -0.99316100       0.26040700       1.17756800
O       -1.74976900       1.13978800       1.72182200
N       -1.35291200      -0.24758800      -0.08002700
C       -0.69853200      -1.21453700      -0.94747900
C       -1.91370000      -1.96828100      -1.48136400
C       -1.58192400      -2.69055900      -2.76066000
C       -2.36140900      -2.96016400      -0.42765100
C       -2.89744900      -0.88387100      -1.66955300
N       -3.99244700      -0.72002500      -2.45306100
N       -4.68798900       0.38041400      -2.39624300
C       -4.39060300       1.40164800      -1.59061000
C       -5.24492800       2.61584300      -1.58999300
C       -6.24196800       2.47089100      -0.52054100
C       -7.54413000       2.14717000      -0.74414900
C       -8.43190100       2.02500300       0.31746200
C       -7.97384900       2.23566900       1.59970400
F       -8.79165300       2.13128900       2.69575900
C       -6.66251100       2.56369900       1.85118700
C       -5.80287400       2.67918500       0.78108500
F       -4.49780400       3.00538900       1.01262200
C       -3.29404900       1.28933100      -0.77716300
C       -2.54354400       0.13483800      -0.82009700
C        2.18553000      -0.73464700       0.65308600
C        3.25856400      -0.49867100       1.69306100
N        4.50553700      -0.08766600       1.03241200
C        4.92968700       1.23649200       0.71880500
C        6.24794800       1.09557300       0.07236200
C        7.11399300       2.09209700      -0.43141300
C        8.28474700       1.67078500      -0.98551000
F        9.12646400       2.61408000      -1.47440700
C        8.66181200       0.34983600      -1.07914500
C        7.81681100      -0.62357400      -0.58747300
C        6.60107200      -0.22507800      -0.00901600
C        5.50830200      -0.97863200       0.59332100
O        5.46793600      -2.23911600       0.70404700
C        2.63806800      -1.59393200      -0.47220000
N        2.10202400      -2.91020200      -0.52174600
H        2.55164300      -3.34318300       1.46721700
H        1.98303000       0.28932300       0.21189000
41
Properties=species:S:1:pos:R:3 energy=-0.4054151093581228 pbc="T T T"
C        3.47776100      -3.54787300      -3.61055000
C        3.64955200      -2.99081900      -2.21122700
C        2.32823000      -2.70192900      -1.57007400
N        2.23308800      -1.58858000      -0.76259400
C        1.33838700      -1.52883300       0.31958900
C       -0.05913000      -1.49466200      -0.16420200
O       -0.31049200      -1.52257200      -1.41058800
N       -1.10722200      -1.43034700       0.76906900
C       -0.96005200      -1.40188600       2.20439200
C       -2.17755100      -2.13537000       2.65893800
C       -2.57968500      -1.69217000       4.04981400
C       -1.85886700      -3.61699300       2.62775500
C       -3.20065300      -1.78691700       1.63856500
N       -4.56776700      -1.82006200       1.66070800
C       -5.20313700      -1.43978700       0.54619200
C       -4.59265400      -1.02236900      -0.60844100
C       -5.39370200      -0.60984900      -1.81759400
C       -5.63168600       0.87018400      -1.74844700
C       -4.65252600       1.64413800      -2.36807600
C       -4.82977000       2.99901700      -2.32876100
C       -5.91868500       3.56938100      -1.70937500
F       -6.03800900       4.91799900      -1.70384200
C       -6.89091800       2.79188100      -1.09368300
C       -6.72247600       1.40368000      -1.12612800
C       -3.21659700      -0.99119200      -0.62468000
C       -2.52455500      -1.37834200       0.51343600
C        3.17566900      -0.54820000      -0.79564500
C        3.02404800       0.29905500       0.42447100
N        3.91550200       1.40029100       0.52716100
C        5.18850800       1.21591300       1.19067000
C        5.64509600       2.61757200       1.61499900
C        6.92662700       2.55004800       2.37946600
O        5.82026400       3.33560800       0.44130000
C        4.63349300       3.67730700      -0.16476800
C        3.58177200       2.65321900       0.00046000
O        2.39531900       2.96699200      -0.35230700
C        4.55207800      -1.14618200      -0.96003800