18
Properties=species:S:1:pos:R:3 energy=-1.098712293668443 pbc="T T T"
C       -2.41426100       3.57692000       0.42221500
O       -3.25112500       2.44560500       0.21010500
C       -2.72925800       1.16083600       0.12483400
C       -3.59326400       0.12040500      -0.08034900
C       -3.10774000      -1.17359500      -0.17052400
C       -1.74745900      -1.40269400      -0.05168900
N       -1.03291900      -2.54874600      -0.10134900
C        0.25422800      -2.22909600       0.06974400
C        0.38570200      -0.86697400       0.23256500
C        1.60840300      -0.04902500       0.44972400
C        2.00282200       0.67981200      -0.84014500
N        3.19071800       1.44303200      -0.52046800
C        4.32738900       0.75013400      -0.07459700
C        5.56354400       1.47292100       0.26439000
O        4.28291000      -0.48477900       0.03260100
C       -0.89914100      -0.33630100       0.15466400
C       -1.37410100       0.94315000       0.24431700
H       -1.46644800      -3.50160500      -0.25171000
44
Properties=species:S:1:pos:R:3 energy=0.15443635330441896 pbc="T T T"
C        2.92425700      -3.24923300      -1.18307200
C        2.96972900      -1.74190000      -1.26751400
C        2.17998200      -1.11934900      -0.16023000
N        1.79142000       0.20915300      -0.35776000
C        0.93512400       0.83910800       0.55063700
C       -0.44755500       0.41992300       0.65591600
O       -1.15923300       1.05136600       1.51790100
N       -1.09558800      -0.59524300      -0.07551800
C       -0.53275600      -1.45391400      -1.10051100
C       -1.70565000      -1.76507900      -1.98478900
C       -1.85959900      -0.71231400      -3.08560000
C       -1.57574600      -3.09492100      -2.67876700
C       -2.86117800      -1.68707100      -1.06711500
N       -4.14027400      -2.13575000      -1.10888900
N       -4.98900500      -1.91774100      -0.12287300
C       -4.68390200      -1.24548000       0.99869100
C       -5.69944000      -1.04228800       2.06771800
C       -6.44640000       0.21489400       1.79647200
C       -6.22585100       1.39104500       2.48342400
C       -6.94687000       2.54451600       2.19474900
C       -7.91244000       2.56886700       1.21296400
F       -8.62498200       3.68532200       0.91831000
C       -8.13472500       1.38680700       0.52190800
C       -7.41655100       0.23895700       0.80994300
F       -7.63917300      -0.92143200       0.12834400
C       -3.39223700      -0.77014300       1.08419600
C       -2.48061300      -0.99154400       0.05111500
C        2.15220000       0.90843200      -1.51810100
C        3.09052200       2.06632200      -1.13541700
N        4.31073700       1.56513400      -0.50907600
C        5.50204900       1.18341800      -1.22064800
C        6.45460000       0.73373100      -0.19778700
C        7.76942200       0.24968300      -0.31766600
F        8.33699300       0.14013800      -1.54784100
C        8.46885300      -0.10811000       0.81009400
C        7.90474200      -0.00218900       2.06908200
C        6.61299600       0.47726200       2.14491600
C        5.87696000       0.84760500       1.03252500
C        4.52408800       1.37006100       0.86936700
O        3.74040100       1.58382300       1.85256900
C        2.75841800       0.13019700      -2.64257100
N        2.39395100      -1.25646000      -2.53011300
H        4.05171200      -1.45210400      -1.23980900
H        1.22061200       1.45649900      -1.87582100
35
Properties=species:S:1:pos:R:3 energy=-3.101092789211817 pbc="T T T"
O       -5.16624900      -1.64351800      -2.39408900
C       -5.38916500      -0.96926800      -1.35221900
N       -6.59151200      -0.86062300      -0.71963000
C       -6.47820700      -0.06663100       0.35717100
C       -7.30759300       0.39823300       1.34520200
C       -6.81362500       1.23161200       2.32628400
C       -5.50676700       1.60976300       2.33965600
C       -4.63719700       1.16383000       1.36266600
C       -5.15311900       0.32461700       0.38222700
N       -4.51267500      -0.23849800      -0.66852500
C       -3.12024100      -0.09066200      -1.01350800
C       -2.42414500       0.93440800      -0.15169700
C       -1.58008500       0.28002900       0.92517100
N       -0.49942000      -0.49750600       0.35127300
C        0.66563500       0.32781500       0.07981000
C        1.25211600       0.76952300       1.38240700
C        2.45598600       1.62462800       1.17181200
C        3.59546900       1.06477300       0.46625100
C        3.47998900       0.58755900      -0.88504300
C        2.98981700      -0.63224300      -1.28926600
C        2.93207500      -0.97795500      -2.62011900
C        3.36247800      -0.11845200      -3.61055300
F        3.29862500      -0.47468200      -4.93084100
C        3.85758400       1.10767700      -3.24009500
C        3.90986800       1.44031200      -1.91007700
C        4.79880300       0.71708800       1.22058400
C        5.92302600       1.51378300       1.20440100
C        7.07542500       1.22028700       1.90139600
C        7.15563300       0.07475100       2.67355500
F        8.28695100      -0.21606400       3.36130600
C        6.03573600      -0.73681700       2.70142700
C        4.88686600      -0.43698100       2.00161200
C       -0.90378700      -1.20889800      -0.83963100
C       -2.39733800      -1.41656600      -0.91685400
H       -7.48095800      -1.31835400      -1.01206100
44
Properties=species:S:1:pos:R:3 energy=-0.7620686260263672 pbc="T T T"
C       -4.47182000      -4.44059200      -1.64564600
C       -4.20467200      -3.13841800      -0.91580300
C       -3.64561800      -2.08766800      -1.84827500
N       -2.35579700      -1.62335400      -1.23839700
C       -1.83703400      -0.56099800      -2.09067900
C       -0.45093500      -0.26081600      -1.73489000
O        0.09569800       0.71778000      -2.37131300
N        0.29084200      -0.96489200      -0.77239800
C       -0.05444600      -2.13165500      -0.01981200
C        0.94584000      -2.22038700       1.07926400
C        0.38304800      -1.71909900       2.40031200
C        1.46588400      -3.64710900       1.24738200
C        2.06084400      -1.34589800       0.66898500
N        3.32385100      -1.16786400       1.15383100
C        4.17530600      -0.28787100       0.60750200
C        3.80910300       0.47150100      -0.46392700
C        4.70425800       1.44530900      -1.11498400
O        4.07758100       2.69261400      -1.25878100
C        5.99847200       1.58420100      -0.44904500
C        7.11927100       0.90488600      -0.94031700
C        8.35929500       1.01930100      -0.34534700
C        8.52981800       1.81831600       0.76673800
F        9.76537500       1.89565400       1.30908700
C        7.42830900       2.49409200       1.26169600
C        6.18839900       2.37394500       0.65904200
C        2.53255700       0.29238900      -0.95603900
C        1.63892800      -0.61057400      -0.40853100
C       -2.88398500      -0.94839100      -0.00489600
C       -4.09180300      -0.16872800      -0.48890500
N       -4.76708200       0.56447400       0.53367700
C       -5.89617000       1.23788400      -0.13012900
C       -5.32165100       2.09782200      -1.25271300
C       -6.64870600       2.11061600       0.82987100
O       -5.81415100       2.88654800       1.63180300
C       -4.59013100       2.98359000       0.99332400
C       -3.88282400       1.64426100       0.97906600
C       -3.35066600       1.28107200       2.36659100
C       -3.27753800      -2.06428500       0.92872600
N       -3.35076100      -3.34455200       0.23723600
H       -5.19964200      -2.81564700      -0.50201200
H        4.89127100       1.06018600      -2.15160500
H       -2.11454400      -0.29172400       0.38135800
H       -6.57371900       0.50225600      -0.57279800
H       -3.00025800       1.76182600       0.32072300
42
Properties=species:S:1:pos:R:3 energy=-0.2876820724517809 pbc="T T T"
C       -4.31939100       3.05499900      -0.49500900
C       -3.77073400       1.62340900      -0.54882100
C       -2.35070900       1.68732300      -0.09491900
N       -1.61876900       0.48294500      -0.32272500
C       -0.21398200       0.76999800      -0.09193200
C        0.33026400       1.68551800      -1.12929200
O       -0.43712600       2.08969200      -2.04077500
N        1.66743500       2.12313000      -1.14040700
C        2.29263500       3.01273700      -2.11111700
C        3.24868000       3.78535300      -1.23000000
C        4.39610500       4.38408200      -1.99851400
C        2.43934000       4.83256200      -0.49349900
C        3.67413800       2.77690200      -0.24374200
N        4.76672100       2.72340100       0.52861300
C        4.92315000       1.66857400       1.36728900
C        3.99887500       0.65206500       1.45207100
C        4.24835700      -0.46143500       2.39520600
C        5.00976900      -1.51647500       1.69651900
C        6.37603300      -1.48257900       1.72013600
C        7.12930000      -2.45557600       1.07561200
C        6.46784900      -3.46796400       0.40386200
F        7.18940100      -4.41704400      -0.22461300
C        5.10090000      -3.51352000       0.37256500
C        4.36538600      -2.52311900       1.02858500
C        2.87886900       0.73016200       0.64408600
C        2.70960200       1.80041200      -0.21385800
C       -1.85833600      -0.16274000      -1.57598500
C       -2.25248100      -1.59740100      -1.35476700
N       -3.43102100      -1.78427300      -0.57894300
C       -3.46112700      -1.92154700       0.86105900
C       -4.88856800      -2.09490700       1.22935500
C       -5.47635400      -2.26521900       2.44134100
C       -6.85783400      -2.40665100       2.51412500
C       -7.64312300      -2.37725200       1.37858900
C       -7.02176900      -2.20303700       0.16016800
C       -5.64532000      -2.06214200       0.08697800
C       -4.75863200      -1.86884600      -1.05975100
O       -5.17453000      -1.79726100      -2.26312100
C       -2.78245200       0.57782900      -2.48685700
N       -3.95900100       1.07901100      -1.85554100
H       -4.43190100       1.04298600       0.16035000
H       -0.85965200      -0.20409700      -2.10560600
20
Properties=species:S:1:pos:R:3 energy=-0.18632957819149348 pbc="T T T"
C        3.56415800       3.27220400       0.06591300
C        2.49911700       2.28987100      -0.36679500
C        2.56997300       1.10240700       0.53103300
O        3.42143800       1.03574900       1.46787800
N        1.70053800      -0.01127500       0.39416900
C        1.77279500      -1.16016400       1.26670500
C        0.75995400      -2.19413700       0.92459100
C       -0.67183100      -1.76204700       1.01136300
C       -1.47777600      -3.01411100       0.60721100
C       -0.90624400      -3.11428800      -0.82956300
C       -1.11789300      -1.66555700      -1.22640400
C       -1.41056400      -1.08944000      -2.44353800
C       -1.58433600       0.27278200      -2.56113000
C       -1.45525300       1.04976800      -1.41185700
C       -1.16355800       0.50219300      -0.18451400
C       -0.99572400      -0.87156200      -0.10957200
C       -1.10389900       1.60315700       0.83993400
C       -1.84208600       2.70861700       0.08374800
O       -1.58586100       2.44109200      -1.27985700
H       -0.97294900      -1.39525900       1.99625900
42
Properties=species:S:1:pos:R:3 energy=-2.319426110190072 pbc="T T T"
C        2.45261200       3.64193800      -1.09261900
C        2.00943400       2.50734600      -2.02129500
C        1.10849900       1.55055800      -1.28741300
N        1.79939100       0.92768300      -0.16804100
C        1.07437100      -0.29504300       0.13815700
C       -0.26394200       0.03710800       0.68031700
O       -0.57403600       1.25634600       0.79633500
N       -1.15647800      -0.99695800       1.05123400
C       -0.90365200      -2.41583300       0.97235200
C       -1.68511700      -2.94724500       2.13918600
C       -0.79738600      -2.83483000       3.36373300
C       -2.14730600      -4.37964000       1.92902400
C       -2.84101900      -2.01769700       2.22891000
N       -4.06255700      -2.09936400       2.78917700
C       -4.90563000      -1.06644700       2.70641700
C       -4.61021700       0.10672500       2.07389600
C       -5.49058300       1.27443400       1.94561200
C       -6.27979300       1.25602600       0.68979800
C       -5.68012200       1.86380700      -0.40355300
C       -6.29841700       1.92211600      -1.63427200
C       -7.54444400       1.35800000      -1.76765700
F       -8.19991400       1.38879200      -2.96741800
C       -8.14632600       0.75145300      -0.68165000
C       -7.51505200       0.69977200       0.54790100
C       -3.35541700       0.20892600       1.49022700
C       -2.47929000      -0.86041400       1.57382300
C        3.18883100       0.63751200      -0.53322200
C        3.61045000      -0.59435000       0.18545400
N        4.93924500      -1.02006900      -0.05534900
C        5.96748700      -0.17813000       0.45543800
C        5.45473700       0.68712300       1.57104900
C        6.65910800       0.66265500      -0.59472800
O        7.04335000      -0.16703700      -1.63277900
C        5.90286600      -0.61066900      -2.27946600
C        5.17667400      -1.55764100      -1.36916900
C        6.04900200      -2.78931500      -1.20389400
C        3.21755700       0.50799000      -2.03128100
N        3.16372900       1.84646100      -2.59312000
H        1.40128600       2.94424500      -2.84549000
H        3.75773700       1.54489900      -0.24387400
H        6.75678800      -0.85046300       0.90155700
H        4.20354300      -1.90077200      -1.77470000
32
Properties=species:S:1:pos:R:3 energy=-2.4849466505880216 pbc="T T T"
C       -4.84372300       2.01965000       2.28850300
O       -4.27450300       1.32941300       1.19622200
C       -5.03975600       0.49353600       0.37611300
C       -6.40549200       0.29296700       0.58811100
C       -7.15191100      -0.53248900      -0.22751600
N       -8.54334700      -0.74774700      -0.03097900
C       -6.51685200      -1.16702000      -1.27018700
Cl      -7.46373600      -2.21981900      -2.30994500
C       -5.15989300      -0.96009700      -1.46964200
C       -4.41258100      -0.14117200      -0.66525700
C       -2.98899600       0.08925300      -0.89092500
O       -2.34399800      -0.45437600      -1.81177900
N       -2.25923300       0.97777700      -0.03562500
C       -0.83376900       1.20717000      -0.27556900
C       -0.45509100       0.49469200      -1.54474500
C        0.30957000      -0.76174400      -1.18578800
N        1.62550700      -0.39840400      -0.64141800
C        2.31919000       0.32959600      -1.71865000
C        3.72884900       0.59782600      -1.32145600
C        3.91120300       1.40940300      -0.07632200
O        5.31124100       1.56950300       0.17281200
C        6.12793600       0.46457300       0.35664700
C        7.45575000       0.57942500       0.58806200
C        8.22844500      -0.57561600       0.76354000
C        7.67164500      -1.84501600       0.70782100
F        8.40995600      -2.97809100       0.87689900
C        6.31308300      -1.93931900       0.47005100
C        5.55419500      -0.80398300       0.29734400
C        1.43351900       0.50857900       0.49598800
C       -0.03447700       0.62477600       0.85349800
O       -0.19752200       1.50657800       1.94448100
C        0.52478800       1.03017400       3.04065600
29
Properties=species:S:1:pos:R:3 energy=0.7807000775678068 pbc="T T T"
C        5.45051000      -0.67540700       0.78379300
C        4.37151400      -0.77203000      -0.22000600
C        3.29423800      -1.68240400       0.01178700
O        4.39418300       0.09277600      -1.27469100
P        2.92047100       0.94993300      -1.19571400
O        3.19241600       2.43636100      -1.13006800
O        1.76392300       0.57582200      -2.28464800
C        0.56010700       1.30148300      -1.98947200
C        0.48668500       1.51760900      -0.52169200
O       -0.70931900       1.83206400       0.02469400
C       -1.12726700       0.68024100       0.80711400
N       -1.94822700      -0.11116500      -0.08198300
C       -2.19743800       0.22539200      -1.34531800
C       -3.16550400      -0.36614400      -2.12796800
C       -3.88102500      -1.35417000      -1.52776300
O       -4.83647900      -1.92313300      -2.22026300
N       -3.66949400      -1.76887000      -0.28040200
C       -2.66314300      -1.09835700       0.43565600
O       -2.46763500      -1.50660300       1.61789200
C        0.14397600       0.21336300       1.35338400
C        0.19415000      -0.95565400       2.28630400
C       -0.00100400       0.19674700       3.29280600
O        0.59781400       1.07290300       2.38188000
C        1.00912700       0.22473500       0.14720500
O        2.32874600       0.47925800       0.37046500
H        1.16151800       2.38950800      -0.23870200
H       -1.77556400       1.18503300       1.59625100
H       -4.18888700      -2.53576700       0.13742400
H        0.76160800      -0.62352200      -0.51252700
24
Properties=species:S:1:pos:R:3 energy=1.0986122886681098 pbc="T T T"
C        6.37596400      -1.07068300       1.22139500
C        6.24195900      -1.60047300      -0.19556600
S        5.49481200      -0.34369200      -1.21148500
O        6.40972200       0.84877400      -1.18482900
O        5.43259500      -0.87825800      -2.60618700
C        3.90233500       0.08262800      -0.60149400
C        3.72823600       1.09159500       0.32594900
C        2.47563300       1.42191500       0.80128200
C        1.34508700       0.76234700       0.37371100
O        0.04798400       0.87492400       0.66067900
C       -0.61328000      -0.01252900      -0.03811300
C       -2.05555600      -0.19703500       0.00398200
C       -2.68691900      -1.16901800      -0.77469200
C       -4.05375600      -1.34860200      -0.73905500
C       -4.83622200      -0.54742400       0.08985400
C       -6.21015000      -0.70359800       0.14743200
C       -6.97166200       0.09517200       0.97116500
C       -6.38398200       1.06832300       1.75716000
C       -5.03427700       1.21567800       1.69517000
C       -4.24604400       0.41483400       0.86574300
C       -2.88319000       0.56020000       0.80007500
N        0.25380600      -0.71058300      -0.78698800
C        1.50491400      -0.24763500      -0.55259000
C        2.76199500      -0.57128100      -1.02259600
40
Properties=species:S:1:pos:R:3 energy=-0.6286711613755805 pbc="T T T"
C       -6.60312300       3.03275000      -2.55209300
C       -6.15533300       1.71390000      -1.99572000
C       -6.89316600       0.95030500      -1.21527600
C       -8.26983100       1.24245300      -0.75160700
C       -6.10129100      -0.24524200      -0.88434400
O       -6.49102200      -1.19138400      -0.15781700
N       -4.83956800      -0.14425200      -1.51979900
C       -3.78001700      -1.11793300      -1.43045100
C       -2.87752500      -0.77815000      -0.24995900
C       -3.71219200      -0.80141100       1.01605500
N       -3.96891000      -2.14424900       1.45959900
C       -2.75016500      -2.86429100       1.77862100
C       -2.52369600      -2.98230000       3.26898500
C       -1.53880800      -2.20313300       1.15617100
N       -1.79345100      -1.65649500      -0.12732800
C       -0.80064800      -1.70605200      -1.08915900
C        0.40512100      -0.90439700      -0.94683900
O        1.27087200      -1.03926700      -1.89220100
N        0.71512800      -0.00923800       0.10419600
C       -0.14800200       0.28610300       1.22058700
C        0.82858900       0.58296900       2.31767200
C        1.21249200      -0.68636100       3.04348400
C        0.25366600       1.58954000       3.29139100
C        1.99523500       1.16381200       1.59630000
N        3.02968500       1.93146200       2.03145400
C        3.95743400       2.30761100       1.14566700
C        3.87628300       1.93197400      -0.17729100
C        4.97893700       2.41584400      -1.06855800
C        6.09513700       1.43688300      -1.09377300
C        6.14990100       0.41166800      -2.01267100
C        7.20490100      -0.48559000      -2.00930000
C        8.20960200      -0.37296900      -1.09785400
F        9.27394400      -1.22365200      -1.04372900
C        8.17894400       0.64433600      -0.16703100
C        7.12654400       1.52443200      -0.18439700
C        2.83975400       1.15404500      -0.64995000
C        1.88683400       0.77413000       0.28525900
C       -4.83064400       1.09887200      -2.25200100
H       -2.53169700       0.25977000      -0.42626300
H       -2.87991400      -3.89649000       1.38868000
43
Properties=species:S:1:pos:R:3 energy=0.15443635330441896 pbc="T T T"
C       -2.75254600      -5.55957900      -0.47156800
C       -2.09847100      -4.26520800      -0.90465200
C       -1.49786900      -3.50793400       0.26325800
N       -2.13016200      -2.20019300       0.41062400
C       -1.70120800      -1.39909700      -0.69236100
C       -0.29089200      -0.98345100      -0.67155400
O        0.09946300      -0.30980900      -1.68632300
N        0.60732200      -1.28593700       0.38247300
C        0.36819000      -1.92928300       1.63543800
C        1.71360300      -2.41601500       2.08233400
C        1.83698200      -3.87773600       1.68980000
C        1.91272100      -2.24222100       3.57904400
C        2.67243600      -1.57570500       1.35618900
N        3.99548800      -1.38872100       1.53080200
N        4.64182600      -0.57517700       0.72762300
C        4.05265700       0.09517000      -0.27710800
C        4.88654100       0.99027800      -1.11920700
C        4.86607300       2.40457700      -0.63760500
C        4.09022500       3.29205300      -1.37576300
C        4.06124700       4.59867700      -0.94666100
C        4.74390400       5.06436600       0.14994500
F        4.61714900       6.36745800       0.44432900
C        5.51152500       4.17409400       0.87544600
C        5.55496100       2.85032900       0.45991600
F        6.30176300       1.95553500       1.15594700
C        2.70222200      -0.07233100      -0.48340200
C        1.99899300      -0.92946200       0.35622700
C       -3.56163800      -2.43968900       0.39323100
C       -4.36187700      -1.43604500       1.11952600
N       -4.24334200      -0.07861600       0.63843200
C       -3.25219700       0.83697600       1.13316500
C       -3.41754300       2.12266800       0.42351400
C       -2.71239500       3.33421400       0.52960500
C       -3.06328100       4.40602900      -0.25382600
C       -4.10607400       4.26491100      -1.13091700
C       -4.80443800       3.08753700      -1.24585100
C       -4.46188300       1.99297300      -0.45991100
C       -4.98395600       0.63365900      -0.33780900
O       -5.94291600       0.15125700      -0.99024800
C       -3.95199000      -2.70689100      -1.01726300
N       -2.96006000      -3.45875700      -1.71785900
H       -1.23531200      -4.57200100      -1.55368300
H       -3.70524000      -3.41290400       0.95514100
41
Properties=species:S:1:pos:R:3 energy=-2.4849466505880216 pbc="T T T"
H        5.16459700      -0.77030700      -1.85707100
C        4.14625800      -0.87443800      -1.48410900
H        4.18672400      -1.46485000      -0.50973900
O        3.29980200      -1.63997500      -2.30399000
C        3.55256800       0.47162400      -1.22947900
C        2.20839000       0.49670700      -0.49042500
H        2.46014300       0.06523800       0.52526100
H        2.02108200       1.55625000      -0.30001400
O        1.24712900      -0.20317100      -1.15893300
C        0.03431800      -0.12165700      -0.48537400
C        0.15764600      -0.54048800       0.95962200
C       -0.50848500       0.11396300       1.96080100
C       -0.40928300      -0.25519300       3.30621200
C        0.38802600      -1.31726400       3.65613600
Cl       0.55021900      -1.80741200       5.34673900
C        1.06469300      -1.98457800       2.66416200
C        0.95402000      -1.60383000       1.32151300
C       -0.93494300      -1.11062100      -1.03792700
C       -0.79459300      -2.44875700      -1.43934100
F        0.46874000      -2.92981500      -1.41647400
C       -1.88478200      -3.19106500      -1.82135400
C       -3.14540700      -2.64338200      -1.81948500
C       -4.33818900      -3.41974600      -2.24816200
C       -4.45933700      -4.66738500      -1.41318600
C       -5.58188500      -2.56711900      -2.15778100
O       -4.14279100      -3.74241500      -3.59896300
C       -3.30321800      -1.33043400      -1.42897200
C       -2.18095300      -0.58159400      -1.04470700
C       -2.03840800       0.82990700      -0.75168600
O       -2.95090500       1.69709300      -0.64583500
N       -0.63673000       1.13310600      -0.58799400
C       -0.11154800       2.47796100      -0.62150000
C       -0.18447000       3.18140800       0.64239800
C       -1.32410000       3.97410700       0.82579700
C       -1.48696500       4.70856800       1.95110400
C       -0.51570800       4.68290700       2.94229900
Cl      -0.68943000       5.62946600       4.42557900
C        0.59000100       3.87930900       2.70519700
N        0.77967100       3.14527900       1.61027400
C        3.80181600       1.62806100      -2.17041700
C        4.54628600       1.54453900      -0.82017400
44
Properties=species:S:1:pos:R:3 energy=-0.4833725969846899 pbc="T T T"
C       -3.52920100      -0.74019400      -4.50973800
C       -2.05043400      -0.52176900      -4.22040900
C       -1.75557200      -1.15974200      -2.88838200
N       -1.90710200      -0.28128400      -1.78970500
C       -1.66981200      -0.70449300      -0.50354100
C       -0.33451500      -1.03881600      -0.04508200
O       -0.20413200      -1.41768400       1.15426200
N        0.81641400      -0.96396100      -0.85862600
C        0.95734000      -0.57944400      -2.26403800
C        2.04289200      -1.53142100      -2.74684200
C        2.84901700      -0.95693600      -3.88607600
C        1.45593800      -2.88856400      -3.06076400
C        2.92769400      -1.62082500      -1.54939600
N        4.21479500      -1.94231400      -1.34673500
N        4.73644700      -1.92455500      -0.13293500
C        4.04397400      -1.59273900       0.97037300
C        4.69272100      -1.58685200       2.32567900
C        5.25525400      -0.25572200       2.63901200
C        4.55374800       0.55073000       3.52437800
C        5.01545900       1.81560400       3.86520700
C        6.19201000       2.23173500       3.29002500
F        6.75885800       3.44558200       3.53345900
C        6.89345600       1.41722200       2.40046700
C        6.42999800       0.16201600       2.06579800
F        7.13700300      -0.61067700       1.19432300
C        2.71840800      -1.25480100       0.81591800
C        2.17545700      -1.27383400      -0.45117000
C       -2.38060300       1.00933600      -2.08746700
C       -2.53316000       1.95783600      -0.95170400
N       -3.45471800       1.56268000       0.07105300
C       -3.17473900       0.83133200       1.27058600
C       -4.45950200       0.68632700       1.99145000
C       -4.69590800       0.04678200       3.19755400
C       -5.96815000       0.01047000       3.73335700
F       -6.22057600      -0.61858200       4.92513600
C       -6.97635700       0.63088400       3.02288200
C       -6.74343700       1.26431300       1.82842300
C       -5.46906600       1.30138200       1.29005700
C       -4.85621200       1.85165900       0.09157400
O       -5.46599900       2.49673300      -0.81248100
C       -1.46016100       1.59097600      -3.17225700
N       -1.65642100       0.83376400      -4.35947200
H       -1.50659900      -1.12267700      -4.98696700
H       -3.39450600       0.89052600      -2.57718100
41
Properties=species:S:1:pos:R:3 energy=-0.4054151093581228 pbc="T T T"
C       -4.95279800      -3.40156100       0.48278300
C       -3.59256000      -3.40509700      -0.16000100
C       -2.67180400      -2.36777200       0.44318600
N       -2.67007300      -1.13697800      -0.32144900
C       -1.53089700      -1.18487500      -1.21917600
C       -0.24845200      -1.10969700      -0.45872900
O       -0.31730000      -1.01902600       0.79239900
N        1.00918400      -1.13858900      -1.11410400
C        1.28317900      -1.23558300      -2.53425700
C        2.61099300      -1.95989600      -2.54526600
C        2.38431200      -3.45400000      -2.62511900
C        3.42983400      -1.48187700      -3.73677800
C        3.26059200      -1.55912800      -1.28458300
N        4.52058100      -1.57632400      -0.83144800
C        4.85894400      -1.13729000       0.40901100
C        3.90283800      -0.64196100       1.28125600
C        4.32153100      -0.18104900       2.60789900
C        4.65143500       1.26944500       2.52069100
C        3.65460600       2.20886100       2.75074500
C        3.93139600       3.55138000       2.67545700
C        5.20536100       3.98498200       2.36976200
F        5.52126000       5.30193900       2.28504000
C        6.18309300       3.03041100       2.14432100
C        5.92365600       1.67888400       2.21561300
C        2.60236700      -0.62291300       0.81670400
C        2.26355700      -1.07299400      -0.45175900
C       -3.91140000      -0.95689800      -1.04762000
C       -3.91800500       0.41905600      -1.67836000
N       -3.80715700       1.38242100      -0.59985100
C       -2.50270400       1.79941400      -0.18388500
C       -2.48294100       2.41935900       1.19322200
C       -2.30093500       3.92152200       1.03564900
O       -3.61270300       2.10710500       1.93641100
C       -4.77320700       2.64872800       1.36423500
C       -4.94603000       1.92480500       0.05613600
O       -6.06126600       1.77770100      -0.48547200
C       -4.05565200      -2.02532100      -2.08380000