35
Properties=species:S:1:pos:R:3 energy=0.08258503401360545 pbc="T T T"
C        8.22326600       1.43320800       1.09464300
C        7.20128500       0.65379500       0.29718100
C        7.94943000      -0.35623600      -0.55095100
N        6.53407700       1.58551500      -0.62778300
C        5.82653500       2.60204500       0.13571800
C        4.65641000       1.97926900       0.87098900
N        4.80312800       0.55753300       0.80594300
C        4.02798200      -0.05947800       1.82994800
C        2.58031900       0.20626500       1.77191200
C        1.80313100       1.18316600       2.31360600
N        0.53807800       0.92836700       1.92887900
C        0.53003600      -0.17510200       1.16978300
C       -0.63890800      -0.81973000       0.53326900
C       -1.90026300      -0.29624900       0.68370000
C       -3.00198500      -0.88235700       0.09873500
C       -4.35899100      -0.36177600       0.22796400
C       -5.41760200      -1.21688900       0.52154400
C       -6.70308900      -0.72612500       0.64224400
C       -6.97182100       0.61625300       0.47622900
C       -5.91670800       1.46114700       0.18454900
N       -5.83961800       2.80135400      -0.03628900
C       -4.56563000       3.16022400      -0.28714100
C       -3.80685000       2.01257200      -0.22459800
C       -4.63929800       0.95785900       0.06736500
C       -2.76286700      -2.03593600      -0.65389400
C       -1.51195900      -2.57904500      -0.81991500
N       -0.99476200      -3.63783300      -1.46351400
N        0.31218900      -3.69574100      -1.28833800
C        0.71786700      -2.65732600      -0.50715900
C       -0.44594800      -1.96021900      -0.21844100
O        1.75741000      -0.58550000       1.09197300
C        4.65494200       0.00567000      -0.50606400
C        5.56644700       0.82105500      -1.43339600
H       -6.68326500       3.41529800      -0.00197500
H       -1.52296800      -4.33505300      -2.02999900
30
Properties=species:S:1:pos:R:3 energy=0.02040816326530612 pbc="T T T"
O       -4.76952200      -1.63541500       1.78434200
C       -4.17276200      -2.51295800       1.07586100
O       -3.39671400      -3.48174900       1.65421900
C       -4.34660100      -2.44391100      -0.38100600
C       -3.17440000      -2.00658500      -1.16280700
N       -2.67746700      -0.71263900      -0.79610800
C       -1.71170200      -0.52140200       0.12363200
C       -1.51431300       0.86012100       0.14450100
C       -2.35402500       1.44961200      -0.74413400
C       -2.57559100       2.78637500      -1.12136800
C       -3.53387000       3.02001200      -2.08361400
C       -4.26674600       2.02410300      -2.67689400
C       -4.05836700       0.71579700      -2.31354600
C       -3.08926500       0.46299500      -1.33930000
C       -0.44687400       1.43307600       1.02677500
C        0.74907100       0.46248400       0.94782300
N        1.00562600       0.32542700      -0.47414000
S        2.54560400       0.94801900      -0.82823900
O        2.66898200       2.41124200      -0.51606200
O        2.79554800       0.81556600      -2.31820700
C        3.76157200       0.03377900       0.03333800
C        4.38038900      -1.05683500      -0.56726500
C        5.35208900      -1.81195400       0.05016000
C        5.76339200      -1.49880300       1.34270800
F        6.72657400      -2.23105000       1.97769600
C        5.15827500      -0.42667200       1.93844900
C        4.17523300       0.33805000       1.31645700
C        0.36314900      -0.88818600       1.44878200
C       -0.94269200      -1.42160800       1.01099100
H        1.58540800       0.92781900       1.44695700
31
Properties=species:S:1:pos:R:3 energy=0.15850340136054422 pbc="T T T"
C        3.42919800      -2.64177400      -1.70310400
O        3.59867500      -1.48212200      -0.91125300
C        4.78482800      -1.20121600      -0.23230400
C        5.81658600      -2.10255800      -0.35049600
C        7.02355100      -1.93583500       0.26697800
C        7.15569400      -0.78507100       1.03466500
C        6.14673900       0.13231600       1.17186000
C        4.93422600      -0.08339800       0.52223800
O        3.88735400       0.83068800       0.64122300
C        4.00582500       2.00085600       1.41869100
C        2.75197400       2.83316300       1.37341000
N        2.50079200       3.20978600      -0.00074800
C        2.08932500       2.07239200      -0.83094700
C        0.67827400       1.70057700      -0.32745500
O       -0.12903900       2.81868600      -0.49792400
C        0.11173600       0.55789400      -1.10613700
O       -1.15030700       0.20998600      -0.71314600
C       -2.35267100       0.80920100      -0.68635900
C       -2.56973700       2.07979600      -1.12545200
C       -3.78559500       2.72428900      -1.11560000
C       -4.85758300       2.00850000      -0.61665000
C       -4.68749100       0.71400600      -0.15851700
N       -5.53634200      -0.20360200       0.36746700
C       -4.90823000      -1.33783000       0.66643700
C       -5.25828200      -2.55682600       1.20336900
C       -4.39361900      -3.59478300       1.41767300
C       -3.04570700      -3.44439600       1.07657900
C       -2.66703000      -2.21234400       0.52925200
C       -3.55907500      -1.19136300       0.32806700
C       -3.45447400       0.10426100      -0.18535500
H       -6.55959400      -0.03327500       0.51630900
33
Properties=species:S:1:pos:R:3 energy=0.0 pbc="T T T"
C        0.67969500      -3.18388100      -0.80798200
C        1.67422600      -2.11610600      -0.52561500
C        2.95565100      -2.14963700      -1.08522200
C        3.88486600      -1.16300700      -0.82862200
C        3.56979000      -0.10791100      -0.00510500
N        4.53529900       0.88328000       0.23925400
C        5.82192300       0.81984900      -0.34205200
O        6.08244700      -0.15959100      -1.09303200
C        6.84797100       1.82597500      -0.11331600
C        6.78103300       2.96610400       0.66173400
C        7.99994700       3.60493500       0.56892100
O        8.77451100       2.90120600      -0.21707400
C        8.11819700       1.82745600      -0.64522200
C        2.29710400      -0.07843900       0.54817300
C        1.35878900      -1.05829300       0.29983200
N        0.04565800      -0.99176200       0.89438200
C       -0.10897100      -1.08209700       2.22636000
N       -1.29639800      -1.02870500       2.85117300
C       -2.41412800      -0.87573600       2.11900600
C       -3.66917300      -0.81304100       2.69904900
C       -4.75437200      -0.65607900       1.87977200
C       -4.68629900      -0.55417500       0.49464800
N       -5.85390300      -0.39241700      -0.29510700
C       -7.15798000      -0.32729600       0.31004400
C       -7.73672400       1.04253100      -0.01273900
N       -7.27961500       1.49655400      -1.30999300
C       -6.01990800       2.23664000      -1.14650500
C       -7.00128100       0.41389400      -2.21973000
C       -5.73234500      -0.29174000      -1.72565100
C       -3.42645200      -0.61917500      -0.06108000
C       -2.31338200      -0.77753200       0.74536300
C       -1.05110500      -0.83889800       0.14039500
O       -0.92507200      -0.75290600      -1.10419200
31
Properties=species:S:1:pos:R:3 energy=0.022517006802721087 pbc="T T T"
C        6.69114300       0.43686700      -0.00820500
C        6.38120400       1.83524700       0.50346400
N        5.03989700       2.20363900       0.10480100
C        3.93487500       1.41283800       0.54262900
O        4.21234500       0.42958300       1.26024300
C        2.55126400       1.70757300       0.19094400
C        1.54173700       0.66119400       0.56859600
N        0.25006500       1.18409000       0.17401400
C       -0.91411500       0.69820600      -0.00089900
C       -1.99535300       1.59953600      -0.41678800
C       -1.69245700       2.92917500      -0.59643400
C       -2.69140700       3.80957000      -0.98964000
C       -3.96834700       3.37181400      -1.19965100
Cl      -5.20221700       4.52615600      -1.69785100
C       -4.27133400       2.03938500      -1.01950100
C       -3.27902100       1.16212800      -0.62840200
C       -1.25056600      -0.70158800       0.17495300
C       -2.58743600      -0.88290600       0.44538500
C       -3.08121600      -2.17298000       0.63303600
O       -4.44119700      -2.37784900       0.90956000
C       -4.96340900      -3.67598800       1.10326400
C       -2.20879900      -3.22905700       0.54087800
C       -0.84577900      -3.08483000       0.26818500
C       -0.39298600      -1.79551400       0.08851300
N        0.99927300      -1.74599100      -0.19032100
C        1.70158600      -2.76065600      -0.71739000
C        1.16918500      -4.09127100      -1.07407300
N        2.95293600      -2.33240200      -0.84696500
N        3.01642300      -1.07970100      -0.40725800
C        1.81326600      -0.67387100       0.01414800
H        1.53044000       0.59760400       1.67780900
29
Properties=species:S:1:pos:R:3 energy=0.06326530612244899 pbc="T T T"
C        0.61914000      -0.78110700      -2.56279100
S        0.84664600      -1.37343800      -0.88274800
C        0.85910700      -0.00987600       0.29855700
C       -0.19953100       0.51989200       0.97170300
C       -1.59594800       0.11117900       0.95470900
O       -2.28824500       0.38813300       1.98972600
N       -2.19429900      -0.54563200      -0.10573000
C       -3.53572200      -0.97923200      -0.22615600
C       -4.41293500      -0.81238900       0.96909600
C       -5.73015900      -1.54208400       0.71211300
C       -6.42088600      -0.91555300      -0.49087200
C       -6.69265900       0.55398300      -0.25217400
C       -5.38926800       1.27104300       0.07045200
C       -4.78980300       0.61725400       1.28478700
C       -4.44824700       1.12001100      -1.10202500
C       -4.20624000      -0.35353000      -1.41063500
C       -5.54215100      -1.02995800      -1.70818600
C        0.31062400       1.58000600       1.74234900
N        1.60368700       1.61008200       1.48736000
N        1.96776900       0.66813500       0.62916100
C        3.33976800       0.42832000       0.22235300
C        3.67423300       0.37380500      -1.07131700
C        5.00128400       0.13095200      -1.43967300
C        5.96624800      -0.05476200      -0.46921100
C        7.34803100      -0.32090600      -0.82505800
O        7.74967800      -0.40965200      -2.00965700
O        8.28551800      -0.49479700       0.20848900
C        5.58623800       0.00587000       0.87137100
C        4.28812400       0.24425300       1.22498100
33
Properties=species:S:1:pos:R:3 energy=1.0 pbc="T T T"
C       -1.47206300      -5.89654000      -0.76891000
O       -1.50641500      -4.57709800      -0.27823800
C       -0.42765200      -3.93778800       0.31231500
C        0.80377700      -4.57430200       0.46684000
C        1.82094300      -3.85945800       1.06622000
C        1.65542800      -2.55578100       1.50867900
C        0.42531500      -1.95732300       1.34012600
C       -0.62442900      -2.63787500       0.74318800
C       -1.73954100      -1.80649900       0.70029800
N       -3.00656400      -2.16017100       0.16075900
S       -4.30394300      -1.01279100       0.18422300
O       -4.52764100      -0.61273200       1.63677500
O       -5.57639700      -1.59484700      -0.29326900
C       -3.92761600       0.39410800      -0.72321800
C       -4.46417600       0.97087000      -1.76056000
C       -3.91005400       2.10387200      -2.24903000
C       -2.96659700       2.65335800      -1.83588900
Cl      -1.97624500       4.06889800      -2.15876900
S       -2.51935300       1.51776800      -0.38032300
N       -1.33384900      -0.65173200       1.27012500
N       -0.06352000      -0.74174200       1.64508400
C        0.65839700       0.32897500       2.28895500
C        1.31638900       1.16826300       1.25734500
C        0.73468100       2.25727400       0.65693100
C        1.40059200       3.01308700      -0.30562200
C        2.67932100       2.64102500      -0.65175900
C        3.28881700       1.56148700      -0.07342500
C        4.66979900       1.21074100      -0.48767700
N        5.16052000       2.17481000      -1.45097100
C        5.56006400       3.44648800      -0.90594800
C        6.08596900       4.53061200      -1.79689400
O        5.48673400       3.69884700       0.31763500
C        2.59930700       0.83619500       0.87599900
31
Properties=species:S:1:pos:R:3 energy=0.0 pbc="T T T"
C        3.58027900       3.80657100      -0.06365400
C        4.68307700       2.78404100      -0.06205200
N        4.38378800       1.64987700      -0.92169300
C        3.25241000       0.81450900      -0.72584600
O        2.49962300       1.09719700       0.24139000
C        2.97873700      -0.35189900      -1.64097800
C        1.70152600      -1.05993200      -1.18537400
N        0.64669000      -0.11166400      -1.25238300
C       -0.49181200       0.05601500      -0.66428200
C       -1.29867700       1.20901900      -1.04578300
C       -2.50335400       1.42498600      -0.45326200
C       -3.26793500       2.50542100      -0.80540100
C       -2.84404700       3.39361300      -1.75815800
Cl      -3.85635100       4.74989300      -2.16712600
C       -1.63136000       3.19671200      -2.37044200
C       -0.85441500       2.08899000      -2.00503400
C       -1.03545500      -0.82308700       0.35770200
C       -2.40655100      -0.62327000       0.49822300
C       -3.11955200      -1.36120300       1.42028500
O       -4.49328300      -1.21206600       1.61257600
C       -5.26922300      -0.30362600       0.88999700
C       -2.42488400      -2.28232100       2.17592200
C       -1.06007500      -2.48172700       2.03655200
C       -0.35523500      -1.74995900       1.12274200
N        1.03725400      -2.02837800       1.05634300
C        1.66117100      -2.67766900       2.07933200
C        1.02598700      -3.16382100       3.33786500
N        2.94906100      -2.77072800       1.69041100
N        3.09409800      -2.20472300       0.49075400
C        1.90703700      -1.73865000       0.08667100
H        1.51146900      -1.83212300      -1.97529600
27
Properties=species:S:1:pos:R:3 energy=0.006190476190476191 pbc="T T T"
C        6.57619700       2.72570300       0.76034800
O        6.57387400       1.42856700       0.22902300
C        5.44133600       0.65768700       0.12989200
C        5.49286700      -0.61647900      -0.39973300
C        4.36982600      -1.40654700      -0.50828900
C        3.14202800      -0.94712600      -0.08635800
C        1.95634200      -1.82399600      -0.21200800
C        1.31677700      -1.55132900      -1.55874700
C        2.40221700      -1.88654000      -2.58445700
N        0.13308400      -2.29225900      -1.77627900
C       -0.89338700      -2.00478900      -0.85242400
C       -1.50285100      -0.66724400      -1.01191100
O       -0.70455400       0.43121700      -0.86590500
C       -2.62619900      -0.49649800      -0.00591500
C       -3.03200000      -1.48486900       0.83163700
C       -4.08224600      -1.22406400       1.71916000
C       -4.70166600       0.01802600       1.74872400
O       -5.74203700       0.25098700       2.64104800
C       -4.29658700       1.02923600       0.90069600
N       -4.92475900       2.31554900       0.92098100
C       -4.49536600       3.34352500       0.03790200
O       -3.54470900       3.06335000      -0.75168900
C       -3.26055300       0.74314600       0.03895500
C        3.10251800       0.33353100       0.44382800
C        4.22701200       1.11620200       0.54834300
H        1.13957900      -0.47412000      -1.64365600
H       -2.06674300      -0.58086600      -2.00213800
29
Properties=species:S:1:pos:R:3 energy=0.017006802721088437 pbc="T T T"
C        2.07767600       3.69204700       0.51868400
C        2.05784900       2.32090000       1.17157900
N        0.76693800       1.70444000       1.14991800
N       -0.14449400       1.93147000       2.11211100
C       -1.25673600       1.25988000       1.82785100
C       -2.47344300       1.28451500       2.68343600
C       -1.06445300       0.58991200       0.66933100
C       -2.00390400      -0.26812900      -0.01817200
O       -1.71624300      -0.85320800      -1.11012800
N       -3.31602500      -0.48194400       0.53422300
C       -4.21361400      -1.34173400      -0.18406500
C       -4.58232000      -2.51450700       0.70923400
C       -5.48194900      -0.62498800      -0.60436800
C       -6.33493900      -1.62590400      -1.34356000
C       -5.12926500       0.47451000      -1.57339800
C       -6.16117100      -0.09973900       0.63706100
C        0.24215600       0.87674000       0.23281000
N        0.72679600       0.33962900      -0.93822200
S        2.19574600       0.42385800      -1.68922800
O        2.57893500       1.84595900      -2.04738400
O        2.20657900      -0.32768500      -3.03615700
C        3.54762100      -0.23954900      -0.81022300
C        3.76969700      -1.62104100      -0.79394100
C        4.84547500      -2.16308200      -0.12939800
C        5.73673200      -1.36154400       0.54025500
C        6.88883400      -1.99005700       1.24736900
C        5.53993300      -0.00847500       0.53809500
C        4.45421400       0.51915800      -0.13443800
H       -3.75662600      -1.74143100      -1.10496100
26
Properties=species:S:1:pos:R:3 energy=0.00795918367346939 pbc="T T T"
C        7.62214800       2.25651000      -0.57369800
C        6.26370500       1.64726200      -0.61486100
O        6.21164400       0.38428800       0.03993900
C        5.01111300      -0.31836800       0.09041900
C        3.85484900       0.17972800      -0.48293800
C        2.65750800      -0.50474800      -0.44160100
C        2.56405000      -1.72961900       0.18148900
N        1.35224300      -2.48171600       0.25278300
C        0.14099900      -1.98917600      -0.33878400
O        0.24699800      -0.87563900      -0.90235200
C       -1.06923500      -2.80630600      -0.23348700
C       -2.30659500      -2.32643900      -0.84639000
C       -2.80976400      -1.04062000      -0.36216300
C       -3.35105700      -0.87933200       0.90950900
C       -3.36356700      -2.09661600       1.77412000
N       -3.81783900       0.30135100       1.29441200
C       -3.78812600       1.37413900       0.48521500
N       -4.18731900       2.65705100       0.62922800
C       -3.93234400       3.34933800      -0.49515200
C       -4.21935600       4.80401400      -0.75472800
N       -3.36649300       2.46914300      -1.34016300
N       -3.27834500       1.28369300      -0.75577300
C       -2.79308500       0.07620400      -1.17077000
C       -2.26655500       0.04159200      -2.58152600
C        3.71171500      -2.23094500       0.75442800
C        4.91270800      -1.54478900       0.71318600
19
Properties=species:S:1:pos:R:3 energy=0.5454421768707483 pbc="T T T"
C        5.84421000       1.73672100      -0.07337600
C        4.90044800       0.65825100       0.40910700
C        5.15959500      -0.64757100      -0.33080500
S        4.04896800      -1.95306700       0.22456700
C        2.36892400      -1.52310200      -0.24680600
C        1.80568800      -1.88677400      -1.44101600
C        0.50729100      -1.51268800      -1.72064900
C       -0.22426200      -0.78587500      -0.82577600
N       -1.48475400      -0.27526200      -0.79807300
C       -1.67866700       0.37033000       0.36159500
N       -2.86346600       1.03377900       0.76059000
C       -4.01089600       1.08438700      -0.05606700
O       -3.94110500       0.50698000      -1.17329800
O       -5.18345100       1.70864200       0.27214300
C       -6.33177100       1.75713500      -0.54921700
N       -0.55414400       0.28308400       1.08673800
C        0.34451800      -0.42235600       0.37168800
C        1.63981000      -0.79844300       0.64533700
H       -0.34693600       0.66582800       2.03322800
31
Properties=species:S:1:pos:R:3 energy=0.2442176870748299 pbc="T T T"
C       -3.34692100       2.96122700       0.28993300
C       -4.16295200       1.76868300      -0.20335800
C       -3.41311400       0.55344300       0.22171400
N       -3.79362800      -0.21299100       1.26320800
C       -3.12753700      -1.31337200       1.65912600
C       -3.53697800      -2.09096500       2.73690600
C       -2.84414400      -3.21999600       3.13439800
O       -3.27819000      -3.97711200       4.21604900
C       -1.71362000      -3.56507300       2.42266000
C       -1.30594900      -2.78964400       1.34873200
C       -1.99607900      -1.66226900       0.95002400
C       -1.59193400      -0.88566300      -0.12208100
O       -0.45267000      -1.23175400      -0.84085200
C        0.80608600      -0.79487500      -0.53859600
C        1.86327800      -1.19558300      -1.30870900
C        3.12801900      -0.75735700      -1.00548100
C        3.36339400       0.07242000       0.04936900
C        4.67195000       0.57772300       0.43311800
C        5.77516600       0.27644800      -0.21519900
C        7.08819800       0.77660400       0.16035900
O        8.08720000       0.43592700      -0.51797100
O        7.29156400       1.61854200       1.24107300
C        2.29064800       0.47977500       0.83185100
C        1.02283500       0.03930300       0.52631800
C       -2.27246400       0.24264600      -0.53017200
C       -1.86766700       1.07766900      -1.65469300
C       -2.41190800       1.00151500      -2.91873100
C       -1.97749300       1.83354500      -3.94667900
C       -0.98545300       2.76509400      -3.73649600
C       -0.43690900       2.84801600      -2.47925700
C       -0.87272900       2.02060300      -1.46656400
34
Properties=species:S:1:pos:R:3 energy=0.2504081632653061 pbc="T T T"
C       -5.37410500      -3.00434400       2.40842300
O       -5.79495100      -1.74105800       2.86713400
C       -5.52703400      -0.53878700       2.15351700
C       -5.95292100       0.69388500       2.61432300
C       -5.64890800       1.79403000       1.86813300
C       -4.91421400       1.72161300       0.64838600
N       -4.63986700       2.79498600      -0.07227800
C       -3.94108800       2.69572100      -1.24873100
C       -3.52342800       1.46822600      -1.68589200
F       -2.80604500       1.35221300      -2.87290600
C       -3.81567400       0.36268800      -0.93701900
C       -3.39988700      -1.00286700      -1.30009800
C       -1.89479000      -1.15832200      -0.88384500
N       -1.85710000      -0.77473100       0.53545100
C       -0.68134000      -1.35724600       1.14155800
C        0.60214900      -0.72908000       0.82849100
C        0.40662700      -0.10199700      -0.56064900
N        1.35733400      -0.21723300      -1.42254300
C        2.29065400      -0.33025400      -2.27005100
C        3.67035100      -0.62868900      -1.67786600
C        4.26324600      -1.86946900      -1.79336800
C        5.46562100      -2.13892200      -1.22730100
C        6.14675300      -1.14259000      -0.50414900
C        5.52456700       0.06785700      -0.42603200
N        4.29977200       0.32575800      -1.00582100
N        6.21184600       1.08321000       0.28713700
C        7.44690700       0.87601400       0.86677100
O        8.27634500       1.78296100       1.27793400
C        7.95182900      -0.51560600       1.05851900
O        7.37738900      -1.38928600       0.07685500
C       -0.52133900       1.09998700      -0.47636500
C       -1.65125300       0.71211900       0.47687200
C       -4.52795900       0.46220200       0.26903900
N       -4.81948700      -0.65299000       0.98637200
24
Properties=species:S:1:pos:R:3 energy=0.7891156462585034 pbc="T T T"
C       -0.84137000      -0.72235400      -2.23362600
C       -1.10314700      -0.72659300      -0.74503600
C        0.22419200      -0.79735000      -0.08234700
O        0.57131400      -1.71037400       0.69222800
O        1.12734800       0.21734500      -0.34585600
C        2.41161200       0.28974300       0.20064300
C        2.76176600       1.63648600       0.76470800
C        4.12303500       2.00651600       0.15937600
N        4.61128300       0.71881900      -0.28686200
C        5.73050300       0.80715700      -1.16713700
C        4.84414800      -0.14501500       0.85733500
C        3.41580700       0.18058900      -0.95486600
C       -1.83757100       0.49697700      -0.38171900
C       -2.46719000       1.20338600      -1.38149000
C       -3.15832300       2.33978400      -1.09739600
C       -3.25949300       2.83072600       0.18651600
C       -2.62471000       2.11313800       1.17389200
C       -1.92153800       0.96576100       0.91857200
C       -1.91127000      -1.97286400      -0.43367300
C       -2.23621700      -2.08579100       1.03986700
C       -3.63342200      -2.68483000       1.10462400
C       -4.27389600      -2.44054400      -0.22866700
C       -3.21165600      -1.96894600      -1.16687300
H        2.65879300      -0.55176700       0.88082800
22
Properties=species:S:1:pos:R:3 energy=0.004897959183673473 pbc="T T T"
O       -0.79250800       4.52762800       1.28484200
C       -0.37441000       3.35839600       1.14842300
C       -0.66785100       2.36187100       2.24468100
N       -1.25367500       1.14827600       1.72255600
C       -0.85827400       0.37834100       0.70432800
C       -1.65864100      -0.76823500       0.42039700
C       -2.62898300      -1.06610000       1.39202100
C       -3.51953400      -2.06115300       1.21244500
C       -3.47835700      -2.79988400       0.05577100
C       -2.55726600      -2.54291700      -0.91127200
C       -1.63654100      -1.49669200      -0.70629300
Cl      -0.61599300      -1.11313300      -2.10489700
C        0.40656100       0.58044500       0.03387800
C        1.07748100      -0.61586400      -0.17174800
C        2.34483100      -0.61781100      -0.75881900
N        3.06396700      -1.80770800      -0.98662100
O        4.18040000      -1.74411300      -1.51199600
O        2.56637600      -3.03231600      -0.64545900
C        2.86848900       0.60511000      -1.11083500
C        2.20428500       1.81658000      -0.90933100
C        0.96927300       1.81062300      -0.33349500
N        0.36037000       3.07865800      -0.06857800
18
Properties=species:S:1:pos:R:3 energy=0.03360544217687075 pbc="T T T"
O       -0.43843800      -2.07417500      -1.68421500
C        0.17556700      -1.20542100      -0.99443800
N        1.59236800      -1.18468100      -1.08710500
C        2.41348500      -0.25489600      -0.36140400
C        3.78959200      -0.27191400      -0.47943000
C        4.55935000       0.62422500       0.22487100
C        4.02337700       1.57460100       1.07310000
C        2.64609100       1.59267600       1.19204600
C        1.87287000       0.69708400       0.48835600
B        0.30525800       0.70548100       0.61725100
O       -0.26461000       1.29588400       1.82571100
N       -0.54379100      -0.29775500      -0.16802900
C       -1.95636800      -0.29372600      -0.05655000
C       -2.62464300       0.78875400      -0.59209700
C       -4.01569100       0.88839800      -0.52922600
C       -4.73315400      -0.10715300       0.07549000
C       -4.09732500      -1.19901500       0.61794400
C       -2.70393500      -1.27836800       0.54399400
37
Properties=species:S:1:pos:R:3 energy=0.0 pbc="T T T"
C        9.68442300       0.34316800       1.92305800
S        8.65675600       1.04090500       3.17175400
O        9.25686400       2.30303900       3.77414300
O        8.35213200       0.04894300       4.28470000
C        7.13451100       1.49143700       2.47907200
C        6.91348000       2.74408000       1.94440500
C        5.75251000       3.16419400       1.38410100
C        4.65209100       2.26707600       1.32511600
N        3.48015200       2.51756600       0.82189700
C        2.51397600       1.75135100       0.76146200
N        1.18339100       1.70795500       0.31738700
C        0.42056500       0.50715000       0.47431800
C       -0.17357600       0.17111300      -0.90242300
N       -0.88163800       1.36303400      -1.28175300
C       -2.27718400       1.35766400      -1.38467500
O       -2.92940900       2.38621100      -1.69719700
C       -3.01690400       0.09920600      -1.11952000
C       -2.77869500      -0.91242300      -2.22241100
C       -3.37419000      -0.35320500      -3.49581300
C       -4.81441900      -0.01476600      -3.28936700
C       -4.97673800       1.05181800      -2.20810800
C       -4.46605100       0.42464300      -0.91939600
C       -5.16177600      -0.89222100      -0.68201300
O       -5.65244700      -1.12516800       0.45194400
N       -5.26194900      -1.85234200      -1.70993000
C       -5.92560100      -3.11781100      -1.45447100
C       -5.32999500      -3.96553200      -0.41517700
N       -4.84810400      -4.62650000       0.42505400
C       -7.33965900      -3.31377600      -1.76975900
C       -6.28414400      -3.85896000      -2.75607200
C       -0.12584800       2.55325200      -1.53928700
C        0.62245000       2.88009000      -0.26883300
S        3.30171400       0.24670800       1.58680000
C        4.87816300       1.02782700       1.85674900
C        6.06664000       0.62385600       2.42146300
H       -2.59047800      -0.40803400      -0.19223400
H       -4.66101400       1.10815700      -0.09498500
38
Properties=species:S:1:pos:R:3 energy=0.629251700680272 pbc="T T T"
O        2.67174600      -1.70149100       0.76482000
C        3.42354600      -1.14411100      -0.09037600
C        4.74312700      -1.75549900      -0.35407200
N        4.88162600      -2.93611800       0.46538400
C        4.97410000      -2.54824900       1.83587900
C        5.69031600      -3.58028000       2.68137000
O        5.63880600      -4.83514700       2.07179700
C        6.45264900      -4.78417600       0.94311500
C        5.93974500      -3.76618300      -0.02064700
N        2.93833800       0.00489400      -0.71566200
C        1.68030400       0.62840200      -0.49912400