32
Properties=species:S:1:pos:R:3 energy=4.787491742782046 pbc="T T T"
C       -6.79360100       1.26747500      -1.06133700
C       -5.65975900       2.00996600      -0.38892000
C       -4.82454000       1.09589300       0.44726400
C       -3.34428800       1.50150200       0.41395900
C       -2.91632000       1.31838100      -1.04048200
C       -2.66914800      -0.18330900      -1.20481400
C       -1.28491700      -0.42098000      -0.58575400
N       -1.40649200       0.03431000       0.80187200
C       -2.62026100       0.57079100       1.33310500
C       -0.23547100      -0.08493800       1.61312500
O       -0.31305100       0.30515700       2.82948400
N        0.98218500      -0.61449100       1.10894000
C        1.01647300      -1.03974400      -0.26885600
C        2.16280100      -1.92467300      -0.60170400
N        3.35142200      -1.46685700       0.04965700
C        3.22672400      -1.54392500       1.49051700
C        2.11507600      -0.69592300       2.00648700
S        3.86891700       0.08520000      -0.46499900
O        3.50158700       0.37227100      -1.87742000
C        5.61684700       0.15948300      -0.22067700
C        6.48898900      -0.22927200      -1.21365800
C        7.85751400      -0.18586500      -1.06095800
C        8.34943900       0.26917800       0.14451000
C        7.51224800       0.66731200       1.16304400
C        6.15115600       0.60700100       0.96629300
O        3.12528900       1.23491400       0.50771100
C       -3.63763100      -1.00090300      -0.39330300
N       -4.84333900      -0.28755600      -0.05270200
C       -6.14088000      -0.86841600      -0.17456600
O       -6.24805700      -2.11029700      -0.21072400
C       -7.27950000       0.08501800      -0.24956400
H       -5.10941100       1.07329900       1.50468600
20
Properties=species:S:1:pos:R:3 energy=4.787491742782046 pbc="T T T"
C        0.94756200      -1.23932300      -1.26302500
C       -0.18476000      -2.21984000      -0.78515700
N       -1.06979800      -1.08687100      -0.25355300
C       -0.23264100      -0.17931200       0.45306600
C        1.24618500      -0.64141300       0.19310400
O        2.04939700       0.55219600      -0.16058800
C        3.40067400       0.49693300       0.01501200
C        4.17305800       1.62865400      -0.25456700
C        5.53667600       1.58563800      -0.12652800
C        6.22814100       0.44864300       0.28128500
C        5.44943500      -0.64536500       0.55753400
C        4.09310600      -0.65993100       0.43981800
C       -2.40494900      -1.04536400      -0.60036300
O       -2.87368500      -1.95523700      -1.43104200
C       -3.35778900      -0.06426600      -0.12549100
C       -4.66209100      -0.06393500      -0.72114700
C       -5.60018700       0.79026700      -0.32250300
N       -5.41051500       1.72954000       0.67167300
C       -4.15823900       1.71439800       1.23516700
C       -3.16958000       0.85458600       0.85681800
17
Properties=species:S:1:pos:R:3 energy=4.787491742782046 pbc="T T T"
C        2.00663900      -2.28498400       0.21460700
N        1.33190500      -1.03959800       0.50322500
C        2.00926200       0.16774000       0.90006900
C        2.40476900       1.03582700      -0.26662700
C        3.34883400       0.29752500      -1.21346200
C        4.67407100       0.46021000      -0.50755200
O        4.48244500       1.29615300       0.56380000
C        3.36947400       2.09116600       0.29313400
C       -0.08281700      -1.00835000       0.38757800
O       -0.72484600      -2.03695100       0.04374000
N       -0.84609900       0.16408400       0.64805100
C       -2.26318100       0.16064300       0.52249000
C       -2.91636400      -0.99087500       0.14327000
C       -4.29665000      -0.99305800       0.02126500
C       -5.06917800       0.12344600       0.26531100
C       -4.40758000       1.27447400       0.64514000
C       -3.02068500       1.28254700       0.76937100
24
Properties=species:S:1:pos:R:3 energy=4.787491742782046 pbc="T T T"
C        2.49553100      -2.41520300      -0.54774800
C        1.37403700      -3.28060100      -1.07892800
O        0.17070500      -2.67560200      -0.58524200
C        0.42460700      -1.35854200      -0.22336100
C        1.79943500      -1.17136400      -0.19197600
C        2.29875000       0.06800400       0.14465900
C        1.41116000       1.07401600       0.43726900
N        0.10229000       0.85120100       0.39500200
C       -0.43688900      -0.33335900       0.07418200
N       -1.84793500      -0.42501000       0.06986500
C       -2.70893700       0.65150600       0.38165100
O       -2.15104300       1.73936900       0.67533800
C       -4.15868200       0.55615600       0.37689100
C       -4.84072700      -0.59801400       0.06662900
C       -6.24050100      -0.56755800       0.09605300
N       -6.93384100       0.53134300       0.41157000
C       -6.29335900       1.64722700       0.71182400
C       -4.89815000       1.66738200       0.69652000
C        3.71018200       0.37206000       0.20795100
C        4.21041300       1.08133200       1.26964200
C        5.57703700       1.38893500       1.35371200
C        6.42977800       0.97246100       0.35498100
C        5.93901000       0.26048200      -0.71448600
C        4.56712700      -0.03622200      -0.77800000
22
Properties=species:S:1:pos:R:3 energy=4.787491742782046 pbc="T T T"
C       -1.61843700       1.05558700      -1.72292200
N       -1.92570600       1.78363000      -0.50273100
C       -3.22654300       2.40103500      -0.62230400
C       -1.93057900       0.91134100       0.65714200
C       -0.57555900       0.29327500       0.90191200
N       -0.70587800      -1.04495800       0.36338500
C       -2.08351000      -1.49568500       0.59107900
C       -2.85918000      -0.22623000       0.39682300
C       -4.01326900      -0.21244500       1.37660500
O       -4.70601800       0.98908800       1.23134700
C        0.34260400      -1.75633700      -0.26618200
O        0.11640100      -2.90460700      -0.69321800
C        1.64483500      -1.13168500      -0.39608200
C        2.65068600      -1.84275100      -1.01360600
C        3.92211800      -1.28841300      -1.16433300
C        4.17623200      -0.01945000      -0.69258000
C        3.17754300       0.71181300      -0.06857500
C        1.92845800       0.12649400       0.06197900
O        5.45687500       0.53089800      -0.84780700
C        5.72522800       1.83051000      -0.36718600
H       -2.21882200       1.48394300       1.53581100
H       -3.27747900      -0.19505300      -0.63716300
22
Properties=species:S:1:pos:R:3 energy=4.787491742782046 pbc="T T T"
C       -5.42536400       3.53625000       0.21437800
O       -4.98142700       2.81596900      -0.92084300
C       -4.14094100       1.72536500      -0.68066400
C       -3.75150800       1.35243800       0.58913500
C       -2.92213900       0.27545300       0.81908800
C       -2.43891800      -0.48655500      -0.22394400
C       -2.82094400      -0.12404600      -1.49866700
C       -3.65085700       0.95402500      -1.72548700
C       -1.54430100      -1.64845100       0.02269900
N       -1.33216400      -1.76804500       1.45255100
C       -0.46402000      -2.88628100       1.77250300
C        0.71567800      -1.95761700       1.58296500
C       -0.26276000      -0.88867300       1.94974300
O        1.21704100      -1.91981800       0.26298900
C        2.27928700      -1.14790400      -0.13100800
C        2.69605400      -1.17574700      -1.43409800
C        3.77596700      -0.38790900      -1.82394500
C        4.44049000       0.42501600      -0.92425500
C        4.00036300       0.43331300       0.37857300
C        2.91795400      -0.35309500       0.78061100
O        5.52417100       1.20753700      -1.34345900
C        6.16833600       2.01877400      -0.39068500
21
Properties=species:S:1:pos:R:3 energy=4.787491742782046 pbc="T T T"
C       -5.39444100      -1.98481200       1.15684200
C       -4.68571200      -0.94046300       0.35168800
N       -5.25122700       0.09342400      -0.28387800
N       -4.28534000       0.77363500      -0.87257500
C       -3.13570900       0.15736100      -0.59730500
O       -3.40572200      -0.87779400       0.14563100
C       -1.78438100       0.57384300      -1.05462500
C       -0.89004500       0.71874700       0.18193600
C       -0.34756200      -0.71159800       0.27717400
N        0.06513300      -0.90704000      -1.12279700
C       -1.18442100      -0.59411800      -1.80460700
C        0.98689600       0.17179100      -1.42015200
C        2.12764000       0.06460000      -0.49021500
C        2.20551100      -0.93147600       0.46294300
C        3.25431500      -1.03914300       1.32614000
C        4.29995800      -0.14805000       1.28835000
C        4.24293900       0.85350400       0.34550000
C        3.18733300       0.96066500      -0.52221100
O        5.35576300      -0.26006900       2.16057300
C        6.43590900       0.64123700       2.13880100
H       -1.79683700       1.47149100      -1.66721300
24
Properties=species:S:1:pos:R:3 energy=4.787491742782046 pbc="T T T"
C        6.54784700      -2.78262200       0.06124400
O        6.62474000      -1.36570700       0.05226300
C        5.45800300      -0.60420400      -0.15877100
C        4.24988600      -1.19954000      -0.36208600
C        3.07257700      -0.50244500      -0.57312500
C        3.11050600       0.89824900      -0.57988900
C        4.31460500       1.49973000      -0.37832500
C        5.50499500       0.79429500      -0.16657600
C        1.82033600       1.64411400      -0.79064100
N        1.16707800       1.81917700       0.50916100
C        0.91506700       0.59626500       1.19066800
C       -0.22661200      -0.16546000       0.57229600
C       -1.41372000       0.78981300       0.55662600
C       -1.09985400       2.02961200      -0.25545300
C        0.06137800       2.72672600       0.41942300
N       -2.63742400       0.15242300       0.18596200
C       -2.97007200      -0.43429900      -1.09056800
C       -4.33285600      -0.94824600      -0.90163000
C       -5.34174000      -1.61740100      -1.59195800
C       -6.42779500      -1.77720600      -0.73704700
C       -6.03310300      -1.18910300       0.46098300
N       -4.78324400      -0.70344100       0.33630600
C       -3.74285000      -0.01950600       1.02589900
O       -3.83774900       0.35877500       2.21524000
24
Properties=species:S:1:pos:R:3 energy=4.787491742782046 pbc="T T T"
C        7.41537500      -1.08433000      -1.69703300
O        6.23066000      -0.35168600      -1.63181200
C        5.04256400      -0.88398100      -1.13534500
C        5.05253100      -2.18261600      -0.69618700
C        3.91715300      -2.77991800      -0.19159500
C        2.76688400      -2.02532800      -0.14297200
C        2.73036000      -0.72224900      -0.57659100
C        3.87922500      -0.16008600      -1.07281100
C        1.47063300       0.06116500      -0.50869600
C        1.29366300       1.36709600      -0.90601700
N        0.01975000       1.73821400      -0.69407800
C       -0.76729000       2.93424300      -0.89294000
C       -1.61577800       3.16704200       0.31542200
C       -2.49558900       2.01280300       0.66704900
N       -1.97707100       0.74547400       0.17445300
C       -0.59476200       0.66643500      -0.16625200
N        0.28293100      -0.35972400      -0.05017200
C       -2.80874500      -0.39614800       0.03057300
O       -2.36828600      -1.48292100      -0.38847200
C       -4.22676000      -0.23965400       0.40101500
C       -4.83517600       0.88449700       0.86948800
C       -6.13337500       0.82227200       1.14842900
C       -6.76960800      -0.36950900       0.94505300
S       -5.50929000      -1.36109000       0.36618100
22
Properties=species:S:1:pos:R:3 energy=4.787491742782046 pbc="T T T"
C        6.57485500       0.25672700       0.84680500
N        5.21473600       0.46203000       0.33118800
C        4.32347000      -0.19179300       1.24523600
C        2.91983200      -0.09801700       0.66253300
C        2.86799100      -0.91064800      -0.57627500
C        4.17889600      -1.09850700      -1.26624100
C        5.18776400      -0.04903900      -1.00013300
O        2.12612300      -2.04527100      -0.42540900
C        0.82513100      -1.69094000      -0.08826400
C        0.28017000      -0.83078100      -1.22203300
C       -1.14123500      -0.50714400      -0.87669500
N       -1.16588000       0.30579400       0.32454300
C        0.10494200       0.41324400       1.05015200
C        0.77137600      -0.94148600       1.20064500
C       -2.32869300       0.96172100       0.78526500
O       -2.27902600       1.64588000       1.82756600
C       -3.58322700       0.86127100       0.07729400
C       -3.61409100       0.10225200      -1.06832300
C       -4.76008900      -0.05176600      -1.80790300
C       -5.90778900       0.57546500      -1.38321100
C       -5.86723600       1.33198200      -0.23701700
C       -4.72801900       1.49902700       0.51897200
24
Properties=species:S:1:pos:R:3 energy=4.787491742782046 pbc="T T T"
C        7.49329000       1.96013200      -0.78807000
C        6.54726100       1.06105400      -0.08149700
N        6.77304700       0.22439200       0.94440200
O        5.68917300      -0.38469100       1.27556300
C        4.74482500       0.03807800       0.48068000
N        5.24087100       0.93786300      -0.37656300
C        3.36061200      -0.43493400       0.55720100
C        2.29436500      -0.04112800      -0.24538700
N        1.20130300      -0.71053600       0.15126000
N        1.55959500      -1.48793400       1.15396000
N        2.84709700      -1.33711900       1.41135800
C       -0.13150900      -0.57556500      -0.44599500
C       -1.01351600      -1.70277000       0.04952200
C       -2.38173300      -1.06300300       0.18571300
N       -2.17823500       0.35492900       0.03696600
C       -0.78084800       0.62253900       0.25557100
C       -3.16603800       1.30388800      -0.26661900
O       -2.85655800       2.51566500      -0.36912100
C       -4.54808800       0.88714800      -0.46293200
C       -4.90208700      -0.44289800      -0.35301400
C       -6.22285500      -0.80705700      -0.54509600
C       -7.19033700       0.14416600      -0.84530200
C       -6.84997500       1.47825900      -0.95822000
C       -5.52966000       1.82833000      -0.76437900
25
Properties=species:S:1:pos:R:3 energy=4.772378104971998 pbc="T T T"
C       -7.61372000       0.64439600       1.26460400
O       -6.60386900      -0.18462500       0.73451600
C       -5.38552800       0.37360400       0.38579000
C       -5.14551900       1.71923600       0.54767300
C       -3.92287300       2.23632300       0.18967200
C       -2.95946500       1.40442000      -0.32369300
C       -3.16461600       0.07039500      -0.49636900
C       -4.38938600      -0.45409900      -0.13896000
C       -2.16222000      -0.87673500      -1.04571400
N       -0.91962600      -0.20664900      -1.38261800
C       -0.41422600       0.38550000      -0.15574400
C       -0.24138600      -0.85451300       0.70728400
C        0.46328000      -1.78427000      -0.27172100
C        0.07177100      -1.23735200      -1.63539300
C        1.92447300      -1.55046000      -0.10244400
N        2.90403000      -2.39918900       0.16399100
N        4.02625600      -1.70100100       0.21511000
C        3.75264600      -0.40227700      -0.02080400
O        2.45737200      -0.35718600      -0.20925300
C        4.70676000       0.71538900      -0.05705500
C        4.37210100       2.02383000      -0.30302600
C        5.53804000       2.75477700      -0.25074400
C        6.53876800       1.85195800       0.02691400
O        5.98137700       0.65743500       0.13048000
H        0.18556000      -2.82891000      -0.15170000
24
Properties=species:S:1:pos:R:3 energy=4.71760561531788 pbc="T T T"
C        3.53182000       2.54277200       2.41225300
O        4.36451400       2.21497000       1.34306000
C        3.97984000       1.35487300       0.30896800
C        4.88096000       1.09585500      -0.70348200
C        4.47918600       0.24396400      -1.71339400
C        3.21571400      -0.33963200      -1.72401900
C        2.31920000      -0.07962800      -0.71325300
C        2.71205700       0.76745900       0.29555300
C        0.99783600      -0.70415600      -0.74580100
C        0.54036100      -1.55967300      -1.72396200
N       -0.71060500      -1.93267000      -1.42577300
C       -1.75187900      -2.77467200      -1.97867500
C       -2.28520900      -3.64822500      -0.88645800
C       -2.79106000      -2.90085800       0.31897500
N       -2.30375700      -1.50744100       0.31622000
C       -1.01368400      -1.30581600      -0.26934900
N       -0.00070700      -0.56250200       0.15657100
C       -3.09703600      -0.46654400       0.85820300
O       -4.20798000      -0.85436100       1.38529400
C       -2.79279500       0.93423200       0.87536300
C       -3.57998800       1.95247000       1.42813400
O       -2.95530400       3.06239700       1.22683400
C       -1.83793300       2.90408600       0.60148200
C       -1.69355000       1.56309900       0.35725600
20
Properties=species:S:1:pos:R:3 energy=4.626931677769604 pbc="T T T"
C       -0.78557700      -0.29965400      -3.14761600
C        0.50253000       0.49314700      -3.19364900
N        0.93048800       0.46006300      -1.81384000
C       -0.25714500       0.66051300      -1.01533500
C       -1.40501600       0.13174500      -1.84456400
O       -2.08750000      -0.92337400      -1.20592900
C       -2.70751200      -0.65303800       0.01419300
C       -2.66483600       0.59905100       0.59202600
C       -3.27212800       0.88205800       1.79659200
C       -3.95883400      -0.09659400       2.48230000
C       -4.00669100      -1.35153400       1.91200600
C       -3.40004000      -1.63698400       0.70727700
C        2.26947100       0.26538300      -1.37996700
O        3.18826700       0.10501800      -2.22294200
C        2.60431600       0.24775400       0.05133300
C        1.63830900       0.41833600       1.02226400
N        2.00285300       0.39260700       2.30229700
C        3.25789400       0.21072200       2.73379000
C        4.24860500       0.03658200       1.77220700
C        3.90254600       0.05820000       0.43755500
24
Properties=species:S:1:pos:R:3 energy=4.525044141508807 pbc="T T T"
C        5.11680400       1.60846100       1.60456500
C        5.50947700       0.33486800       1.27189200
C        4.62212000      -0.59462200       0.77682100
C        3.32291900      -0.19865100       0.62728500
C        2.90379800       1.06874100       0.95224900
C        3.80678000       1.96977900       1.44135900
C        2.28326200      -1.09964900       0.10877500
C        0.96940800      -0.72564700      -0.05100300
N        0.06450100      -1.61644400      -0.53721300
C        0.45029000      -2.86069000      -0.86188800
C       -0.68704400      -3.49741800      -1.31480700
N       -1.70081300      -2.64461900      -1.25327300
C       -1.25258200      -1.47510800      -0.77389000
C       -2.01134700      -0.24397000      -0.53362600
C       -1.41448400       0.89321400      -0.03297600
C       -2.12032300       2.06851500       0.20038300
C       -3.47127500       2.13139000      -0.06915900
C       -4.07149000       0.99547000      -0.57011300
C       -3.36244300      -0.16691600      -0.79855400
C       -4.20882200       3.36430400       0.17624900
O       -3.61116900       4.36936500       0.63372100
O       -5.56749200       3.46796800      -0.08152100
C        1.76791200      -3.22275900      -0.69739100
N        2.66201400      -2.34534100      -0.21788600
24
Properties=species:S:1:pos:R:3 energy=4.48863636973214 pbc="T T T"
C        4.47620400       0.26954600       1.62023000
C        3.72451500       1.31360100       1.11278900
C        2.77764800       1.04089400       0.13496400
C        2.55276100      -0.21350700      -0.35097800
C        3.30712500      -1.26371200       0.15774900
C        4.25712200      -1.00397600       1.13584800
C        1.55414600      -0.54699200      -1.39200500
N        0.26361500      -0.87250300      -0.83112700
C       -0.66231600       0.10335700      -0.62712100
C       -1.90630800      -0.20161900      -0.08785300
C       -2.79047300       0.82847500       0.09082100
C       -2.45306200       2.11778500      -0.25344900
C       -1.20443100       2.40384300      -0.79144000
C       -0.29794000       1.38413900      -0.98059700
C       -0.92200300       3.78635700      -1.12937400
O        0.19694700       4.06546500      -1.61526100
O       -1.83642000       4.80055100      -0.93614800
N       -2.21634700      -1.46988300       0.24219100
C       -1.29804400      -2.43095400       0.03875900
C       -1.84183500      -3.63615200       0.45037500
C       -3.11303500      -3.31836700       0.89814300
N       -3.30926200      -1.99942200       0.75888600
C       -0.06380200      -2.13110000      -0.49583400
O        0.80519500      -3.02582500      -0.69076000
22
Properties=species:S:1:pos:R:3 energy=4.249922794040544 pbc="T T T"
C        6.67029200       0.71760600       0.34773300
O        5.48161900       1.20928800      -0.21782500
C        4.30176500       0.54921100      -0.01598600
C        4.24624300      -0.59886900       0.73604900
C        3.06497700      -1.23970400       0.92481400
C        1.90483500      -0.72020800       0.34649500
C        1.96070100       0.42670400      -0.40469300
C        3.15312500       1.05954000      -0.58590100
C        0.65185800      -1.41547000       0.55702100
O        0.62859200      -2.46467300       1.24976300
N       -0.52160900      -0.87672300      -0.03674500
C       -0.48706300       0.33195100      -0.83320600
C       -1.71002500       1.17234500      -0.65013000
C       -1.54709100       2.05563500       0.57986800
O       -2.66187300       2.90472000       0.59410800
C       -3.77889000       2.12351800       0.28118400
C       -3.53402900       0.74862200       0.82555800
N       -4.42854800      -0.24799500       0.27136500
C       -4.07142200      -1.13152800      -0.77587300
O       -4.89180200      -1.80119700      -1.44400100
C       -2.63015200      -1.26579800      -1.09472300
C       -1.80150400      -1.53697600       0.14508400
29
Properties=species:S:1:pos:R:3 energy=4.787491742782046 pbc="T T T"
C       -2.69146900       0.49737000       2.45082500
N       -3.37236300       0.12858100       1.20135600
C       -4.79795600       0.20952300       1.17702200
C       -5.21506200       1.67175300       1.17644300
C       -6.61029600       1.69769900       0.53972400
C       -7.38965500       0.45416600       0.96033500
C       -6.84192900      -0.74483700       0.17498900
N       -5.39769300      -0.48945300       0.05776700
C       -4.68334100      -0.91424100      -1.08682800
O       -5.25601200      -1.37432100      -2.09717100
C       -3.22019400      -0.79903200      -1.05864700
C       -2.63695900      -0.29349000       0.05948000
C       -1.26797300      -0.17434900       0.11308800
C       -0.44617200      -0.54836400      -0.92774500
C       -1.03980800      -1.06034100      -2.05958700
C       -2.43118300      -1.18486900      -2.12235400
C        0.99188300      -0.42538500      -0.87674700
O        1.70244200      -0.77866100      -1.84915000
N        1.69137200       0.09288100       0.25265500
C        3.08843200       0.20225600       0.27784000
C        3.86510300      -0.18152600      -0.77977300
C        5.23770600      -0.08054800      -0.77063500
C        5.87111000       0.41898100       0.32532000
C        5.12203400       0.81665500       1.41171200
C        3.71988300       0.70726100       1.38732800
S        7.63297000       0.57189400       0.39320400
O        8.03579300       1.72892400       1.26186700
O        8.13828500       0.78654700      -0.98595700
N        8.20105300      -0.93507600       1.05270300
22
Properties=species:S:1:pos:R:3 energy=4.787491742782046 pbc="T T T"
C        4.90751400       0.32785900       0.49389600
N        4.58399800      -0.58606600       1.55770700
C        3.70715200      -0.02064800       2.54690700
C        2.27326200       0.06086300       2.08892300
N        2.06155400      -0.72096600       0.91378600
C        2.71497700      -2.02748600       0.86372900
C        4.18798500      -1.88363000       1.09657400
C        1.25592600      -0.24480700      -0.14620000
O        1.07085600      -0.92989500      -1.17508000
C        0.62798800       1.08454900      -0.02513400
C       -0.16827200       1.37731800      -1.24683800
C        0.24034300       1.99418000      -2.41158300
C       -0.84827700       2.03992000      -3.25306000
C       -1.89485900       1.44940700      -2.58036900
N       -1.45692900       1.05776800      -1.37025100
C       -2.30115300       0.39788700      -0.39818400
C       -1.84420100      -0.72130600       0.24460400
C       -2.63987300      -1.36067700       1.17460100
C       -3.91352700      -0.88896500       1.47943100
C       -4.32728800       0.23711100       0.80819000
C       -3.55247300       0.88623200      -0.11841800
F       -4.68470300      -1.52865100       2.39663700
26
Properties=species:S:1:pos:R:3 energy=4.787491742782046 pbc="T T T"
C       -5.75506200       0.64590100      -2.47066800
N       -5.03126900       0.55090800      -1.22677800
C       -4.75003900       1.86152100      -0.72394400
C       -3.94890600       1.83192300       0.54750800
N       -2.77593300       1.02549900       0.33018300
C       -2.60373000       0.30080300      -0.90837100
C       -3.90676500      -0.32197100      -1.30268100
C       -1.77727700       0.93004000       1.32152200
O       -1.90672500       1.55008300       2.40230600
C       -0.58654600       0.11995100       1.11791100
C        0.54115200       0.65444000       0.55340600
C        1.65871500      -0.11316300       0.36439500
N        1.64561100      -1.39737900       0.73587000
C        0.57783900      -1.99315300       1.29598400
C       -0.54809200      -1.20945200       1.48345500
C       -1.47561600      -2.04857700       2.06183000
N       -0.92898000      -3.28874700       2.21628300
N        0.31069100      -3.23192300       1.74727100
C        1.23231100      -4.36418000       1.73394600
C        2.85285200       0.49702100      -0.24597000
C        2.86527000       1.81168100      -0.62611700
C        3.98207900       2.41230700      -1.20546500
C        5.09690500       1.60694400      -1.38238100
C        5.08710500       0.28238400      -1.00036100
C        3.95767400      -0.28686900      -0.42537100
F        6.18673600       2.17401000      -1.94229400
26
Properties=species:S:1:pos:R:3 energy=4.787491742782046 pbc="T T T"
C        4.69991900       1.04968000      -1.75644400
N        5.10953000      -0.11218700      -1.02499900
C        5.60735600       0.12138000       0.28458200
C        4.56468300       0.05416500       1.36036000
N        3.30774300      -0.33505300       0.75004900
C        3.32508400      -1.51025700      -0.09168400
C        4.30919900      -1.27661900      -1.20765300
C        2.10335000       0.35913500       0.94256400
O        2.07880700       1.37297600       1.67461900
C        0.89156300      -0.08253200       0.30787800
N        0.91752000      -1.16652600      -0.48068500
N       -0.17310900      -1.63178200      -1.09913500
C       -0.40389600      -2.67298500      -1.91986900
N       -1.69842100      -2.71802000      -2.28012500
N       -2.27786200      -1.70150900      -1.68260100
C       -1.36275000      -1.02092300      -0.95203500
C       -1.44378400       0.10355300      -0.14755900
C       -0.31949300       0.58300600       0.48898500
C       -2.74291800       0.76962700       0.01382500
C       -3.53692300       1.02994000      -1.07733300
C       -4.76102100       1.64564800      -0.99470300
C       -5.22828800       2.02658900       0.23956400
C       -4.44833800       1.77575500       1.34538800
C       -3.21457900       1.15467500       1.25950100
O       -2.42012800       0.89793200       2.38101700
C       -2.88324400       1.28433300       3.66649300
25
Properties=species:S:1:pos:R:3 energy=4.787491742782046 pbc="T T T"
C        4.84399000       2.40577100       1.33229200
N        4.62295600       0.96156800       1.36720000
C        3.32273100       0.65382400       1.77806000
C        2.61570400      -0.43385400       1.06496900
N        2.82466900      -0.27052700      -0.34706600
C        4.14116100      -0.07384800      -0.82133000
C        5.13657500       0.35498300       0.20115600
C        1.72737200      -0.30887900      -1.22238600
O        1.92715700      -0.16317200      -2.46650100
C        0.34476000      -0.51374900      -0.74163800
C       -0.46880500       0.52956600      -0.39088700
C       -1.76201400       0.37648800       0.06108200
N       -2.21647500      -0.89858600       0.14874300
C       -1.47076600      -1.96112300      -0.17894400
C       -0.15864500      -1.79363100      -0.63681400
C        0.32385600      -3.05245100      -0.88214300
N       -0.65685300      -3.93999400      -0.58435000
N       -1.73582300      -3.28849900      -0.16184000
C       -2.95123000      -3.96023500       0.23217800
C       -2.61328400       1.48932700       0.42933800
C       -2.15898200       2.77882900       0.34247700
N       -2.92124500       3.84264000       0.67615000
C       -4.17478400       3.64825100       1.11168700
C       -4.65238700       2.36168000       1.20702400
C       -3.88963900       1.25562000       0.87071900
18
Properties=species:S:1:pos:R:3 energy=4.787491742782046 pbc="T T T"
C        4.63936000       1.99575600       0.51244800
N        3.85543800       1.31331000      -0.50792400
C        2.50724200       1.77835400      -0.44734800
C        1.47799300       0.68947300      -0.37030100
N        1.81641100      -0.33533700       0.58445200
C        3.21662900      -0.55308900       0.92179700