32
Properties=species:S:1:pos:R:3 energy=4.787491742782046 pbc="T T T"
C        3.97264300       0.96215800       2.92644300
C        2.97336500       0.98208600       1.77899900
C        3.75196600       0.70451400       0.50916200
C        2.91164400       0.91570600      -0.70667400
C        3.58447700       0.38896900      -1.93266000
C        3.82110500      -1.10211200      -1.72985900
C        2.51601900      -1.82479600      -1.42678900
N        1.42882700      -0.87579900      -1.38678000
C        1.52120100       0.31814600      -0.58117300
C        0.26735800      -1.13989500      -2.15518300
O        0.19038100      -2.18325100      -2.85725400
N       -0.82582900      -0.23366800      -2.14542300
C       -0.73666900       0.96753700      -1.33682900
C       -2.04274000       1.16669200      -0.61679700
N       -3.19701800       0.97893900      -1.41986500
C       -2.96113500       0.60908100      -2.77597200
C       -1.98371400      -0.52832400      -2.93140900
S       -4.46806000       0.12781800      -0.66269000
O       -4.21458400      -1.35792100      -0.75611900
C       -4.54194700       0.62903800       1.00536200
C       -3.83223700      -0.00916400       1.99924600
C       -3.91965600       0.42567600       3.32844500
C       -4.71093800       1.49418000       3.67488100
C       -5.42208700       2.13767400       2.69527100
C       -5.32014900       1.69259300       1.39787100
O       -5.92647500       0.48709500      -1.39997000
C        4.74397000      -1.31346900      -0.56921900
N        4.31814700      -0.61111100       0.61471000
C        4.46068400      -1.22340300       1.87797300
O        4.59605200      -2.46526300       1.95119300
C        4.45876100      -0.45616700       3.15560800
H        4.58663600       1.44655900       0.47550200
20
Properties=species:S:1:pos:R:3 energy=4.787491742782046 pbc="T T T"
C        0.81751800      -2.92200700       0.47181300
C       -0.09230700      -3.03359000      -0.76013100
N       -0.77827500      -1.77426500      -0.71383000
C        0.19067100      -0.76937000      -0.38348700
C        1.07070600      -1.43677100       0.62700200
O        2.44332800      -1.13597600       0.45624500
C        2.94146000       0.15351500       0.54841100
C        2.14242800       1.25204300       0.81415800
C        2.62802400       2.53464000       0.90734100
C        3.99183400       2.73908500       0.72532000
C        4.81158200       1.67583200       0.46101200
C        4.28711900       0.40074500       0.37475800
C       -2.14744300      -1.56297100      -0.94870600
O       -2.94922700      -2.50907100      -1.23832100
C       -2.72340000      -0.22034600      -0.86929300
C       -1.90538100       0.83486700      -0.56106500
C       -2.42304300       2.10113700      -0.48121500
N       -3.72508900       2.34588600      -0.69829900
C       -4.52411100       1.30728500      -1.00049100
C       -4.05639600       0.01933200      -1.09308600
17
Properties=species:S:1:pos:R:3 energy=4.787491742782046 pbc="T T T"
C        0.89030800       0.11044300      -2.64518500
N        0.82964900      -0.48458400      -1.32634200
C        1.99753600      -1.20951900      -0.86960900
C        2.94874400      -0.28622200      -0.13960500
C        4.14409300      -1.07614800       0.31652600
C        5.28988200      -0.43790700      -0.41956500
O        4.85010100       0.83657800      -0.74245400
C        3.51478300       0.69977000      -1.15533400
C       -0.31341500      -0.37975700      -0.49019400
O       -0.32903400      -0.90966600       0.64877400
N       -1.48290500       0.31991700      -0.89188700
C       -2.61975600       0.39840400      -0.00563600
C       -3.76338500       1.07190400      -0.37554000
C       -4.84080900       1.13183400       0.49501500
C       -4.82440000       0.54111800       1.73309400
C       -3.67859000      -0.13376700       2.10391700
C       -2.61280300      -0.19239800       1.24138500
24
Properties=species:S:1:pos:R:3 energy=4.787491742782046 pbc="T T T"
C       -2.32179600       0.42513900       2.44082900
C       -1.13330100       0.79866700       3.29749800
O        0.01158300       0.41152200       2.55939500
C       -0.31255200       0.26224000       1.21069300
C       -1.70012200       0.26689900       1.11032500
C       -2.31656000       0.13482600      -0.11638300
C       -1.50172200       0.00012200      -1.22044000
N       -0.15323600      -0.00391700      -1.11863100
C        0.45215200       0.12423300       0.07237700
N        1.88663100       0.12201900       0.19888300
C        2.72279700      -0.01641700      -0.93605000
O        2.16354900      -0.13637700      -2.05009000
C        4.15442500      -0.01526700      -0.78028100
C        5.01795900      -0.14657200      -1.85299300
C        6.38671800      -0.13552100      -1.61614400
N        6.92005400      -0.00297000      -0.39037700
C        6.08916500       0.12518800       0.65782400
C        4.73920600       0.11806000       0.45755600
C       -3.77171300       0.13891200      -0.22885700
C       -4.43171900       0.86845900      -1.19743300
C       -5.81333900       0.85373900      -1.28073700
C       -6.59438800       0.11915700      -0.41205800
C       -5.93659500      -0.61125500       0.55744600
C       -4.55719600      -0.59420400       0.63764700
22
Properties=species:S:1:pos:R:3 energy=4.787491742782046 pbc="T T T"
C       -4.69555900      -2.19408800       0.31945100
N       -3.96434800      -1.03455000       0.71399100
C       -4.73950400       0.15114700       0.90749700
C       -2.82848100      -0.72828900      -0.12040100
C       -1.77505500      -1.80174700      -0.10151100
N       -0.55748400      -1.08011500       0.14832800
C       -0.86041600      -0.01670300       1.07116900
C       -2.16137400       0.51202300       0.46378400
C       -1.93002400       1.53170600      -0.60694600
O       -1.32376200       2.65896700      -0.07435000
C        0.71649300      -1.34518700      -0.40039600
O        0.87466300      -2.29927200      -1.20417500
C        1.84652100      -0.49669400      -0.02262000
C        1.68813600       0.55034900       0.86368200
C        2.78550000       1.31837400       1.18964300
C        4.02831900       1.07685300       0.66236000
C        4.14383500       0.02344900      -0.21763000
C        3.07353700      -0.77766900      -0.57712800
O        5.11210300       1.87028300       1.01224200
C        6.40585200       1.66422100       0.49823900
H       -3.09909800      -0.52494400      -1.17810500
H       -2.73985600       0.94188600       1.29349600
22
Properties=species:S:1:pos:R:3 energy=4.787491742782046 pbc="T T T"
C       -6.95504500       2.83665200       1.09681500
O       -6.74172800       1.48019400       0.85011800
C       -5.58969600       0.92420300       0.34849900
C       -5.55297300      -0.44701000       0.16642600
C       -4.42609900      -1.05764400      -0.33242900
C       -3.30925900      -0.31843600      -0.66187000
C       -3.32895800       1.02945400      -0.48906400
C       -4.46069000       1.63290500       0.01073700
C       -2.14131400      -1.06933100      -1.19337300
N       -1.03328400      -0.18316900      -1.50121000
C       -0.63508600       0.50961200      -0.26543100
C        0.79985300       0.30257200      -0.70190000
C        0.22637100      -0.92608900      -1.38481500
O        1.68679300       0.02098000       0.36177200
C        3.03246700      -0.20092700       0.19361500
C        3.78253600      -0.46522300       1.32049100
C        5.13965400      -0.70393300       1.28045500
C        5.77673000      -0.67695200       0.05472400
C        5.03319000      -0.41281200      -1.08095100
C        3.67608400      -0.17720600      -1.01399200
O        7.14530600      -0.91594200      -0.00066200
C        7.87514800      -1.18189800       1.17216200
21
Properties=species:S:1:pos:R:3 energy=4.787491742782046 pbc="T T T"
C        6.37306400       0.64115700      -0.22967700
C        5.00794400       0.06172000      -0.20192700
N        4.59157500      -1.20083300      -0.23278700
N        3.27472800      -1.23356600      -0.18696800
C        2.85932600       0.03175900      -0.12631300
O        3.92273200       0.79801600      -0.13651900
C        1.47217800       0.55750800      -0.05775100
C        0.74539600       0.01287800      -1.28295100
C        0.41567400      -1.39163700      -0.82967000
N        0.24945800      -1.35605800       0.59016400
C        0.72191800      -0.09913800       1.07686400
C       -1.04846700      -1.72542000       1.03831500
C       -2.13572900      -0.86815200       0.52473900
C       -3.42420900      -1.17764400       0.92665400
C       -4.49146100      -0.41533400       0.48287500
C       -4.28668300       0.66230000      -0.36514800
C       -3.00802000       0.98582600      -0.77649800
C       -1.96900100       0.19588200      -0.30801300
O       -5.41235400       1.38142700      -0.76847100
C       -5.31506600       2.49363200      -1.62900400
H        1.45699600       1.64567400      -0.01769700
24
Properties=species:S:1:pos:R:3 energy=4.787491742782046 pbc="T T T"
C        7.89519200      -0.23223300      -0.32246500
O        6.67814700      -0.89366600      -0.60262200
C        5.44859600      -0.25347700      -0.65828900
C        5.25829800       1.08106900      -0.45112000
C        4.01369400       1.67069500      -0.51798000
C        2.93693500       0.87100600      -0.80348600
C        3.12496800      -0.46889000      -1.01126100
C        4.35763400      -1.04424900      -0.94410900
C        1.57416500       1.43444000      -0.88307700
N        0.98828800       1.25810300       0.43720100
C       -0.35939000       1.80242200       0.40265900
C       -1.11872400       1.15250800       1.55398800
C       -1.42373500      -0.26506500       1.13014900
C       -0.30681200      -0.77290600       0.26141600
C        0.97794700      -0.14642400       0.81803700
N       -2.73018700      -0.37755800       0.51231400
C       -3.96019100      -0.25055500       1.23768500
C       -5.01619600      -0.44825600       0.23043200
C       -6.41678800      -0.49591500       0.06255000
C       -6.67576600      -0.73552300      -1.26384300
C       -5.46584600      -0.83628900      -1.90832400
N       -4.49228200      -0.65724300      -0.97326800
C       -3.07707800      -0.61988800      -0.83837200
O       -2.21086800      -0.77210700      -1.74427400
24
Properties=species:S:1:pos:R:3 energy=4.787491742782046 pbc="T T T"
C        6.29894400      -1.84270200       0.15425500
O        6.39256200      -0.41931500       0.09118300
C        5.24769700       0.34875200       0.02341000
C        5.36759700       1.71626200      -0.03634700
C        4.20149100       2.46826600      -0.10398100
C        2.95692900       1.83553900      -0.10989700
C        2.83987600       0.46733100      -0.05003000
C        4.01227000      -0.25498800       0.01641400
C        1.52674700      -0.14900800      -0.05867400
C        1.34121200      -1.51900800      -0.00064200
N       -0.00121200      -1.71142600      -0.02971600
C       -0.73711600      -2.98504000       0.00834400
C       -2.09088100      -2.73305400       0.63403900
C       -2.86319400      -1.68089900      -0.09550600
N       -2.06683200      -0.47533900      -0.14531000
C       -0.65170700      -0.54248400      -0.10210500
N        0.31389700       0.41723800      -0.11912600
C       -2.66681800       0.78428200      -0.23702100
O       -2.01553700       1.85387100      -0.28262100
C       -4.13934000       0.98562500      -0.28996600
C       -4.94332400       1.84209400      -0.36331800
C       -6.29633300       1.61500700      -0.38745900
C       -6.80289300       0.53458800      -0.33725500
S       -5.22403600      -0.55559100      -0.22842900
22
Properties=species:S:1:pos:R:3 energy=4.787491742782046 pbc="T T T"
C        6.21692900       0.66146600      -1.56826300
N        5.32807400       0.94989700      -0.48140900
C        4.04774900       1.42885100      -0.85297300
C        2.99073800       0.40963500      -1.04831000
C        3.12912800      -0.84384400      -0.27238700
C        4.49952700      -1.18186200       0.17820300
C        5.34410800      -0.01379500       0.56811300
O        2.21553000      -0.97508700       0.76828200
C        0.90442800      -0.96042400       0.31582300
C        0.63168200      -2.08213500      -0.64791900
C       -0.80939400      -2.12301800      -1.02595300
N       -1.52943000      -0.90754500      -0.71153900
C       -0.90036000       0.39198200      -0.63416000
C        0.56942800       0.33596800      -0.38869400
C       -2.91519600      -0.99497500      -0.46822300
O       -3.50062200      -2.09304000      -0.52364200
C       -3.67530700       0.19294800      -0.15050000
C       -5.01892100       0.10952400       0.08561100
C       -5.71349000       1.25865700       0.38542700
C       -5.06883600       2.47591900       0.44766600
C       -3.69989500       2.55727700       0.20656300
C       -3.04587100       1.40360000      -0.08643300
24
Properties=species:S:1:pos:R:3 energy=4.787491742782046 pbc="T T T"
C       -7.34758500       1.57741000      -1.70303300
C       -6.47208500       0.67316200      -0.91049700
N       -6.88072400      -0.38303200      -0.20282000
O       -5.85353100      -0.93791200       0.35813900
C       -4.75666500      -0.29167500       0.05414200
N       -5.13883300       0.72591600      -0.74586000
C       -3.38667700      -0.59410800       0.48329000
C       -2.20762000       0.04898500       0.19408200
N       -1.18090800      -0.58646300       0.81368800
N       -1.73367500      -1.59868700       1.46737600
N       -3.05178000      -1.61824500       1.28086700
C        0.21233100      -0.29496500       0.81341100
C        0.52266400       1.17094100       0.60413000
C        1.93832300       1.13352500       0.01233700
N        2.22190800      -0.24633400      -0.23909500
C        0.96493900      -0.92523100      -0.34103600
C        3.49684700      -0.81614000      -0.36096900
O        3.69916700      -2.04501200      -0.58409700
C        4.71373800       0.01283600      -0.23154500
C        4.57125400       1.34909100       0.00985200
C        5.66446300       2.17397000       0.14047900
C        6.93673700       1.65837800       0.02838400
C        7.09091300       0.32026200      -0.21352900
C        5.97679900      -0.50667200      -0.34419700
25
Properties=species:S:1:pos:R:3 energy=4.772378104971998 pbc="T T T"
C       -5.37662500      -1.70724200      -1.79292000
O       -6.09100200      -0.88541200      -0.89008300
C       -5.45625600      -0.23516800       0.15932000
C       -6.20745700       0.55143600       1.00462700
C       -5.60624200       1.22132000       2.07100800
C       -4.25401300       1.08204600       2.26177900
C       -3.47054500       0.30292700       1.43552300
C       -4.09562000      -0.34147700       0.39665500
C       -2.01370000       0.20502200       1.71096700
N       -1.38564800      -0.65854700       0.72801000
C       -1.57743300      -0.12419000      -0.60040000
C       -0.29296900       0.51374100      -1.02341700
C        0.45483000       0.63817300       0.29631100
C        0.04457100      -0.66390500       0.97833600
C        1.90441000       0.73093800       0.10865600
N        2.67079100       1.72159200       0.60032900
N        3.91648300       1.47277000       0.23290200
C        3.93274300       0.35227100      -0.47299700
O        2.68834100      -0.08555600      -0.53668000
C        5.12358200      -0.25255200      -1.05452800
C        6.40650300       0.24045500      -0.96278300
C        7.19412500      -0.65035100      -1.65536800
C        6.33380400      -1.62705300      -2.12231700
O        5.10493900      -1.37341100      -1.75470900
H        0.05239000       1.46267200       0.88178100
24
Properties=species:S:1:pos:R:3 energy=4.71760561531788 pbc="T T T"
C       -7.61433600       0.07574900      -0.04478000
O       -6.34009000       0.13706600      -0.65662000
C       -5.16733600       0.01770800       0.09923300
C       -5.25805200      -0.16252600       1.46235200
C       -4.10432300      -0.28507700       2.24444200
C       -2.88235400      -0.21853600       1.59967900
C       -2.76004100      -0.03902700       0.23825100
C       -3.92347300       0.07668700      -0.49142100
C       -1.45765000       0.02783400      -0.41831000
C       -1.16781300       0.20120900      -1.75445000
N        0.16786400       0.19888900      -1.89566700
C        0.96882700       0.34555100      -3.09155000
C        2.34439400       0.87212100      -2.74666600
C        3.03766600       0.07073500      -1.68783000
N        2.16344700      -0.01375700      -0.53635700
C        0.74867000       0.02928000      -0.69119600
N       -0.26630400      -0.07231600       0.19213800
C        2.75550600      -0.14044400       0.74857800
O        2.00053500      -0.21597100       1.77137100
C        4.18617400      -0.18584200       0.92676700
C        4.85676700      -0.30650500       2.12633300
O        6.14155400      -0.31714400       1.94802900
C        6.37890400      -0.20936200       0.68266000
C        5.19146400      -0.12183900      -0.02498500
20
Properties=species:S:1:pos:R:3 energy=4.626931677769604 pbc="T T T"
C        0.93297500       1.70690700       0.44222400
C        0.39999500       1.17454100      -0.96336700
N       -0.70950000       0.34620900      -0.36058100
C        0.10664900      -0.60087900       0.43243600
C        1.16166500       0.26141500       1.00688800
O        2.37689800       0.02147400       1.45018700
C        3.51420800      -0.21849800       0.66854400
C        4.68684200      -0.54455400       1.24448600
C        5.82151500      -0.76314300       0.45869900
C        5.63702000      -0.65141700      -0.92896700
C        4.45762000      -0.34467000      -1.54095800
C        3.34823800      -0.11170100      -0.72827000
C       -1.98804900       0.60819400      -0.60736100
O       -2.10736600       1.68586100      -1.40615600
C       -3.28161800       0.09316300      -0.28538500
C       -3.58706000      -0.82658200       0.66494200
N       -4.83077700      -1.32139700       0.83549500
C       -5.89204700      -0.99820500       0.11349900
C       -5.64341000      -0.01260900      -0.93461400
C       -4.40379800       0.49589200      -1.11542200
24
Properties=species:S:1:pos:R:3 energy=4.525044141508807 pbc="T T T"
C       -4.34459000      -3.43673800       1.41174700
C       -3.01820900      -3.36545200       1.07345000
C       -2.44518000      -2.15691300       0.81040200
C       -3.16869400      -0.99956300       0.87620500
C       -4.49507400      -1.06153400       1.21357500
C       -5.10544200      -2.29044900       1.48797000
C       -2.49432800       0.25400400       0.58339800
C       -1.16200600       0.33784100       0.24243100
N       -0.55187700       1.50564300      -0.02580700
C       -1.29749400       2.63314500       0.04844900
C       -0.45198900       3.66650500      -0.26519800
N        0.77791700       3.13525000      -0.51953900
C        0.71068300       1.80097600      -0.37033400
C        1.79280900       0.84134300      -0.54525900
C        3.06901000       1.22412200      -0.90184800
C        4.09131800       0.29786900      -1.06515400
C        3.87022700      -1.05081700      -0.87612800
C        2.59545800      -1.43885700      -0.51937400
C        1.58578800      -0.51018700      -0.35946200
C        4.95754400      -2.00782800      -1.05262500
O        4.70315200      -3.22239700      -0.86855400
O        6.21598300      -1.55230500      -1.41205200
C       -2.62134200       2.59013600       0.38325100
N       -3.21366300       1.38795100       0.65045500
24
Properties=species:S:1:pos:R:3 energy=4.48863636973214 pbc="T T T"
C        4.58633900       0.79114800      -1.28467200
C        4.54738500      -0.44371600      -0.64975200
C        3.53083700      -0.74720800       0.23225200
C        2.52025300       0.14692200       0.52142200
C        2.56944500       1.37128100      -0.11571400
C        3.58265400       1.68518700      -1.00043000
C        1.41925400      -0.14601500       1.45914900
N        0.27413200      -0.74824200       0.83295600
C       -0.70658100       0.04357200       0.34596700
C       -1.83123500      -0.46796800      -0.26596000
C       -2.80319100       0.38386800      -0.74610800
C       -2.67517900       1.73881900      -0.62765700
C       -1.55550500       2.26406100      -0.01783800
C       -0.60308300       1.41439700       0.45209900
C       -1.39869300       3.71203500       0.11926900
O       -2.29358300       4.48480200      -0.32329500
O       -0.28081400       4.23786700       0.72820100
N       -1.96757400      -1.81273400      -0.38844800
C       -1.01172800      -2.62946400       0.08449800
C       -1.41660600      -3.93707200      -0.17809600
C       -2.63490900      -3.86282300      -0.81730600
N       -2.92183800      -2.55217900      -0.91915700
C        0.09704400      -2.07345200       0.68972700
O        0.97317900      -2.85308600       1.12206300
22
Properties=species:S:1:pos:R:3 energy=4.249922794040544 pbc="T T T"
C        6.40780000       1.13778800       0.14915200
O        5.27546200       1.09423000      -0.68232100
C        4.08911400       0.48245200      -0.33670900
C        3.05317500       0.50735700      -1.23657300
C        1.83627100      -0.07604900      -0.97689700
C        1.61375400      -0.72632800       0.23889900
C        2.64912800      -0.74414100       1.12305700
C        3.88194200      -0.15535500       0.86480600
C        0.31984100      -1.33172300       0.48289200
O        0.13079800      -1.91104300       1.57354600
N       -0.73696100      -1.29681300      -0.45556600
C       -0.49340200      -0.61851200      -1.71440700
C       -0.82124400       0.85526300      -1.62826900
C       -2.24816000       1.02528200      -2.12935100
O       -2.92995500       1.96045800      -1.36214400
C       -2.52711800       1.83577500      -0.03510700
C       -3.70072200       1.96062600       0.90718300
N       -3.98565400       0.73792300       1.61549700
C       -3.45123500      -0.52663800       1.27186000
O       -3.21327100      -1.42508000       2.13024200
C       -3.12772900      -0.89181700      -0.14340800
C       -2.02183300      -1.89365500      -0.22260700
29
Properties=species:S:1:pos:R:3 energy=4.787491742782046 pbc="T T T"
C       -2.92277500       1.89005900      -1.11623100
N       -3.50138500       0.84712700      -0.29550900
C       -4.91678300       0.67417100      -0.28108800
C       -5.44242700       0.12859400      -1.58688600
C       -6.73604900      -0.63173200      -1.31690900
C       -7.55299200       0.09606500      -0.26893100
C       -6.83954800      -0.12995500       1.07079400
N       -5.42764400      -0.13846500       0.78016900
C       -4.57553300      -0.94631200       1.54320800
O       -5.02192500      -1.76864600       2.38395200
C       -3.13794900      -0.85420200       1.38141500
C       -2.59973600       0.04163300       0.46291700
C       -1.23267400       0.13207100       0.30627600
C       -0.36555300      -0.64888700       1.04192600
C       -0.93343500      -1.52414900       1.94137300
C       -2.28697800      -1.65794300       2.14053700
C        1.08799800      -0.54304600       0.86577500
O        1.83770100      -1.27608200       1.55954300
N        1.68633400       0.34506300      -0.04804500
C        3.07857500       0.46591500      -0.23614300
C        3.91286900      -0.32893100       0.51533900
C        5.29626700      -0.25893000       0.37834500
C        5.85661500       0.61245200      -0.51719000
C        5.03838800       1.41030600      -1.27245200
C        3.64916400       1.33434600      -1.12923500
S        7.61869500       0.70615800      -0.69623300
O        8.28705000       0.30993300       0.60477800
O        7.97497400       2.10962200      -1.05878400
N        8.16875900      -0.39623200      -1.89648100
22
Properties=species:S:1:pos:R:3 energy=4.787491742782046 pbc="T T T"
C       -5.11428100       0.93053100       1.92628000
N       -4.31096100       1.66763100       1.05437100
C       -3.24638200       2.41649100       1.55790800
C       -1.87105900       1.99188700       1.09742200
N       -2.03736700       1.03252600       0.04633500
C       -2.99842200       1.29772100      -0.98803000
C       -4.36112600       1.38445900      -0.32198800
C       -1.26760300      -0.14238900       0.03985500
O       -1.36546800      -1.03078500      -0.85963800
C       -0.29170200      -0.37197500       1.12472500
C        0.39415600      -1.66556600       0.90486600
C       -0.00858600      -2.90316300       1.37870200
C        0.92148200      -3.82240800       0.93642500
C        1.84451600      -3.09363500       0.21423800
N        1.52321800      -1.79066800       0.19694100
C        2.23547100      -0.73578100      -0.44534400
C        3.32861100      -0.20308800       0.19549400
C        4.05728600       0.82399700      -0.38353900
C        3.68449900       1.31848100      -1.61449800
C        2.59192000       0.78614300      -2.25513000
C        1.88182100      -0.22925900      -1.66914900
F        4.40997300       2.33885000      -2.18769400
26
Properties=species:S:1:pos:R:3 energy=4.787491742782046 pbc="T T T"
C       -5.42599900       2.12263300       0.94311800
N       -4.93153500       1.12902900       1.84881600
C       -3.56155000       1.37225500       2.19334600
C       -2.58707700       0.89090100       1.13921300
N       -2.82685200      -0.51504600       0.90132300
C       -4.01594400      -1.11726900       1.42875100
C       -5.20042200      -0.21418200       1.44396200
C       -1.86784800      -1.23956300       0.15162000
O       -2.11791300      -2.47941000      -0.03581600
C       -0.66641100      -0.61997500      -0.37827800
C        0.53506700      -0.55243900       0.31491800
C        1.64073600       0.05050000      -0.24526800
N        1.57028700       0.58448200      -1.47770500
C        0.41826900       0.54664600      -2.20199900
C       -0.69279500      -0.06127600      -1.63456600
C       -1.68000900       0.06398000      -2.60459500
N       -1.13569800       0.70714200      -3.64767900
N        0.13152400       1.01062800      -3.43109100
C        1.05458500       1.70574400      -4.32358000
C        2.91609700       0.12055200       0.49414400
C        3.04473000      -0.40895700       1.75767900
C        4.24623400      -0.33647000       2.43981600
C        5.35207400       0.27159700       1.86809600
C        5.23906700       0.80665900       0.60321600
C        4.02698200       0.71945400      -0.05373400
F        6.53440000       0.35783400       2.50629400
26
Properties=species:S:1:pos:R:3 energy=4.787491742782046 pbc="T T T"
C        5.89788400      -0.28919700       2.40107200
N        4.93767500      -0.17089600       1.31455800
C        4.34063900      -1.47528100       1.07515100
C        3.45375700      -1.37303100      -0.14841500
N        3.42379400       0.00364600      -0.57635500
C        4.66185600       0.63835200      -0.96316300
C        5.65740100       0.33984100       0.16612900
C        2.20064000       0.69798600      -0.59805600
O        2.18492100       1.90230100      -0.98110500
C        0.95737500       0.08052300      -0.19681200
N        0.91654300      -1.20241000       0.21997100
N       -0.20722000      -1.78608600       0.60285500
C       -0.52293000      -3.02421700       1.05211200
N       -1.86521200      -3.07443000       1.30276700
N       -2.36559900      -1.87776000       1.00870800
C       -1.36995400      -1.11655800       0.59246600
C       -1.44945100       0.19212800       0.18836700
C       -0.23541300       0.77560100      -0.21040000
C       -2.60739800       1.00513200       0.14263600
C       -2.67572200       2.09825700       1.02649600
C       -3.72314000       2.95740200       1.07840900
C       -4.80476400       2.79002300       0.23638600
C       -4.77916400       1.72731700      -0.64858500
C       -3.69715800       0.85907800      -0.68566400
O       -3.63190800      -0.21308700      -1.55182800
C       -4.69745100      -0.46463300      -2.45318700
25
Properties=species:S:1:pos:R:3 energy=4.787491742782046 pbc="T T T"
C       -4.25590500      -3.51329300      -0.85125100
N       -3.56035400      -2.41517000      -0.19068900
C       -4.35997800      -2.03909000       0.95937300
C       -3.84845300      -0.79407600       1.62815900
N       -2.69048700      -0.30748800       0.90176400
C       -2.76738000      -0.15362300      -0.54367500
C       -3.59676600      -1.29653600      -1.14081200
C       -1.47414500       0.02796900       1.54791700
O       -1.36388200      -0.09078100       2.80298900
C       -0.32480200       0.51430500       0.79995600
C        0.63873900      -0.32242900       0.27929300
C        1.73151300       0.10920600      -0.42922400
N        1.85625700       1.44821400      -0.62035900
C        0.95061100       2.31663900      -0.13798800
C       -0.14621100       1.87745500       0.57366300
C       -0.89087000       2.98819600       0.93637600
N       -0.23292500       4.07595000       0.43901600
N        0.85173600       3.66058100      -0.19211100
C        1.80776700       4.52632300      -0.85368700
C        2.70888500      -0.83543100      -0.94917800
C        3.80988300      -0.44681700      -1.65908600
N        4.70407600      -1.36192600      -2.13046200
C        4.50966900      -2.66931000      -1.89923600
C        3.41590500      -3.11711500      -1.18871600
C        2.52711700      -2.18175400      -0.72239300
18
Properties=species:S:1:pos:R:3 energy=4.787491742782046 pbc="T T T"
C        5.05858800      -0.17447800      -2.37789200
N        3.86439500      -0.42381100      -1.58400900
C        4.11140800      -0.17947800      -0.17618900
C        3.19890800       0.86014200       0.38026800
N        1.84122300       0.49745300       0.05307000
C        1.54709800       0.18292300      -1.31956600