32
Properties=species:S:1:pos:R:3 energy=4.787491742782046 pbc="T T T"
C       -4.35328900      -2.54526700       0.93526200
C       -4.84676100      -1.92190600      -0.32991900
C       -4.72989200      -0.42507400      -0.35882400
C       -4.29788300       0.01199700      -1.73870500
C       -4.08692000       1.50873900      -1.68598100
C       -2.89249900       1.78251500      -0.83883100
C       -1.66728800       1.26984400      -1.60680300
N       -1.85090600      -0.15618500      -1.74641900
C       -3.07398000      -0.72817500      -2.22094000
C       -0.74887200      -0.99663800      -1.38801800
O       -0.85136500      -2.25667800      -1.48965600
N        0.46177600      -0.46617400      -0.92008900
C        1.54558700      -1.33103000      -0.56960400
C        1.94750200      -0.95722900       0.86408500
N        2.41641500       0.40995700       0.80986700
C        1.41608000       1.35054800       0.41651500
C        0.62419700       0.95272600      -0.78846600
S        3.74934300       0.45968700      -0.28860100
O        3.76999800      -0.76018100      -1.17912700
C        5.26967800       0.51463500       0.54875400
C        5.80576300       1.74448100       0.86929700
C        7.01301000       1.84881100       1.53546900
C        7.69236400       0.71198000       1.88536700
C        7.19536200      -0.53989900       1.58586100
C        5.98563200      -0.60489100       0.91914700
O        3.55188400       1.78713300      -1.31488900
C       -2.89209900       1.12759200       0.49194300
N       -3.89571800       0.11436900       0.66566200
C       -4.07005800      -0.39878500       1.99755900
O       -3.65074700       0.22260900       2.99997800
C       -4.77517800      -1.71171800       2.15113800
H       -5.76113600       0.01054000      -0.21103600
20
Properties=species:S:1:pos:R:3 energy=4.787491742782046 pbc="T T T"
C       -1.42142500       1.31821100       0.05339500
C       -0.14115600       2.00334300      -0.19164600
N        0.88031800       1.06334000      -0.33163400
C        0.28087200      -0.14714200      -0.89797900
C       -1.04591200      -0.19573600       0.00338300
O       -2.04498500      -0.68082800      -0.96404700
C       -3.37766500      -0.76517800      -0.49547500
C       -4.38343800      -1.34266000      -1.12038400
C       -5.67971000      -1.39186400      -0.64243500
C       -5.94893800      -0.77104600       0.59268600
C       -4.94875800      -0.15959500       1.29989200
C       -3.69057200      -0.14553900       0.78003100
C        2.19777400       1.24942200       0.10061900
O        2.44101800       2.30597000       0.76657200
C        3.32471700       0.38740700      -0.13201800
C        3.27287500      -0.72674000      -0.94206800
C        4.44945000      -1.46437100      -1.11638700
N        5.62066700      -1.14481400      -0.53062200
C        5.68681800      -0.07751000       0.25827100
C        4.52805200       0.68532900       0.44317600
17
Properties=species:S:1:pos:R:3 energy=4.787491742782046 pbc="T T T"
C        1.28261700       2.05542700       0.73694500
N        1.12089900       0.86568000      -0.06966600
C        2.24406700       0.24013000      -0.68451300
C        2.89917500      -0.81219300       0.17833600
C        3.40044300      -0.19385200       1.49331600
C        4.69375100       0.42002400       0.98935700
O        5.19169200      -0.40984600       0.02563800
C        4.19309500      -1.20081000      -0.46853800
C       -0.17686600       0.31450900      -0.25027800
O       -0.37163100      -0.72023000      -0.94322800
N       -1.33737700       0.89810700       0.34110700
C       -2.61953300       0.32424000       0.14218000
C       -2.74154800      -0.80134700      -0.62564300
C       -3.97247000      -1.37611300      -0.83327600
C       -5.09912400      -0.81180500      -0.26085000
C       -4.97360100       0.32364200       0.51331800
C       -3.73359000       0.88443600       0.70974400
24
Properties=species:S:1:pos:R:3 energy=4.787491742782046 pbc="T T T"
C       -2.24362000       0.53726300       2.38130000
C       -1.32800100      -0.35451000       3.18565000
O       -0.14512900      -0.48127900       2.41716400
C       -0.37370400      -0.07556900       1.10042900
C       -1.60825300       0.53458200       1.03066500
C       -2.08101100       1.03086500      -0.16572400
C       -1.27003100       0.88814600      -1.26933800
N       -0.05320400       0.28131500      -1.17636000
C        0.41961100      -0.20612200      -0.01949800
N        1.68227200      -0.81618000      -0.01058400
C        2.51936900      -0.96985300      -1.12139000
O        2.13734700      -0.53535000      -2.23700500
C        3.80496900      -1.62715000      -0.95135700
C        4.65144900      -1.79503600      -2.01930300
C        5.86166600      -2.41846600      -1.83846200
N        6.26867300      -2.88241000      -0.64507500
C        5.42407600      -2.70685900       0.38469400
C        4.19990800      -2.09269600       0.27504600
C       -3.40679700       1.68783900      -0.24864200
C       -3.55699400       2.85476200      -0.93505200
C       -4.79597000       3.45346300      -1.00310700
C       -5.89388300       2.88295400      -0.38110200
C       -5.72420300       1.70308600       0.30856700
C       -4.48853800       1.10720400       0.37568500
22
Properties=species:S:1:pos:R:3 energy=4.787491742782046 pbc="T T T"
C       -3.37751500       0.24356900      -2.84918500
N       -2.41600400      -0.67292000      -2.26247400
C       -3.13265200      -1.84412100      -1.78604500
C       -1.84777300      -0.00702400      -1.10983100
C       -0.81756600      -0.88445000      -0.41088300
N       -0.80285000      -0.29788900       0.90015100
C       -2.16669700      -0.10365900       1.29103700
C       -2.84701700       0.24298200      -0.02120200
C       -3.33543400       1.66985200      -0.04637900
O       -4.26000100       1.80039200       1.00396500
C        0.34521100       0.01761300       1.64133300
O        0.19489800       0.53383600       2.78999200
C        1.69804300      -0.23321800       1.12359300
C        2.77620200       0.10089500       1.90399800
C        4.08769600      -0.10879100       1.47686800
C        4.32394400      -0.66565600       0.24023300
C        3.22900200      -0.99509400      -0.53024900
C        1.92037900      -0.78330800      -0.09833800
O        5.63193500      -0.89170700      -0.22356700
C        5.85150200      -1.46367000      -1.49445300
H       -1.34769500       0.94310800      -1.35266100
H       -3.70760700      -0.41960600      -0.18590300
22
Properties=species:S:1:pos:R:3 energy=4.787491742782046 pbc="T T T"
C       -6.47204200       0.41900600       2.14366400
O       -6.23608300      -0.17571200       0.90427300
C       -4.96694800      -0.35707900       0.34918100
C       -4.88572200      -0.96144800      -0.88686600
C       -3.65025200      -1.15695800      -1.46562000
C       -2.50107900      -0.75751400      -0.82664900
C       -2.62686700      -0.15898600       0.40416000
C       -3.84830100       0.05207500       1.01233600
C       -1.14217500      -0.94108200      -1.39946400
N       -0.74386300       0.19638200      -2.19851500
C       -0.71689500       1.42026200      -1.42494200
C        0.73960800       1.16493400      -1.13273300
C        0.69285300       0.32226600      -2.36545500
O        0.99817900       0.51329900       0.07434400
C        2.30032400       0.23382200       0.43317500
C        2.63595900      -0.40809400       1.61144900
C        3.90965300      -0.69252100       1.98352000
C        4.94220900      -0.31705600       1.13046900
C        4.66611700       0.31689200      -0.04055800
C        3.35912100       0.58793600      -0.38269200
O        6.24870400      -0.58540500       1.46753100
C        7.29749800      -0.20839700       0.60939200
21
Properties=species:S:1:pos:R:3 energy=4.787491742782046 pbc="T T T"
C       -6.55657800      -1.37671700       0.12685600
C       -5.29522500      -0.57951200       0.15129700
N       -5.26083600       0.76759600       0.26152600
N       -3.99042700       1.09889400       0.24715600
C       -3.26231600      -0.01484200       0.13115100
O       -4.06875600      -1.04184800       0.07276500
C       -1.80743800      -0.07364500       0.07845200
C       -1.21470400      -0.94351900       1.18318500
C        0.09331100      -1.36908000       0.57940200
N        0.08120000      -0.98028200      -0.80912200
C       -1.32793300      -0.86078100      -1.14841300
C        0.66228200       0.32463700      -1.03838800
C        2.07682500       0.39044900      -0.60524800
C        2.76263300      -0.64474600      -0.05606400
C        4.08573600      -0.46796800       0.31245200
C        4.74079900       0.73990200       0.13879500
C        4.03570300       1.79493900      -0.42288300
C        2.72435600       1.60017300      -0.78190800
O        6.07367900       0.92676900       0.50724100
C        6.75359800      -0.19026800       1.08052900
H       -1.30591000       0.89985000       0.14294900
24
Properties=species:S:1:pos:R:3 energy=4.787491742782046 pbc="T T T"
C        6.95457800       0.26765400       1.35801200
O        6.28649400       1.19356700       0.51734600
C        5.10259500       0.82627300      -0.14781500
C        4.44705400       1.71489300      -0.96336200
C        3.26912500       1.35231700      -1.62692300
C        2.74571900       0.10111700      -1.47659300
C        3.41683200      -0.79146300      -0.64827600
C        4.57171600      -0.43714800       0.00266600
C        1.47349200      -0.37480800      -2.13334700
N        0.38080600      -0.24478600      -1.14426300
C        0.22479400       1.13423200      -0.79982000
C       -0.07679600       1.33937800       0.62643800
C       -0.93730700       0.28856300       1.28320200
C       -0.32225600      -1.10074100       1.02851500
C        0.83086900      -0.96515700       0.06103900
N       -2.31288900       0.30764100       0.82722300
C       -2.84194800       0.96297800      -0.33905200
C       -4.27296200       0.56422600      -0.36635400
C       -5.43478700       0.69700000      -1.09419000
C       -6.44949800       0.01716400      -0.44012400
C       -5.86045300      -0.51376800       0.67873700
N       -4.54178100      -0.17911500       0.71589700
C       -3.37647000      -0.37147200       1.49657400
O       -3.27692600      -1.02239100       2.58446900
24
Properties=species:S:1:pos:R:3 energy=4.787491742782046 pbc="T T T"
C       -6.46915100      -0.78338500       0.91652800
O       -6.44625700       0.38195900       0.11039600
C       -5.20801800       0.85190000      -0.30001800
C       -5.18411500       1.98523700      -1.08412400
C       -3.97937200       2.47703100      -1.50730400
C       -2.80691400       1.84147100      -1.14992800
C       -2.79348300       0.70700600      -0.36763600
C       -4.01496000       0.22378000       0.05079200
C       -1.53541900       0.04030600       0.00526900
C       -1.43718500      -1.09520700       0.78263900
N       -0.14331500      -1.42821200       0.92264900
C        0.46688800      -2.51951400       1.63392200
C        1.75389200      -2.86665700       0.91029900
C        2.64066400      -1.63683900       0.96123500
N        1.99006100      -0.59834500       0.20116300
C        0.57935100      -0.50312400       0.23351800
N       -0.28872600       0.37604500      -0.31328500
C        2.78403100       0.29495500      -0.55499200
O        2.20534900       1.19545400      -1.21328500
C        4.22582700       0.19355000      -0.58463200
C        5.12457900      -0.58553200      -0.04503900
C        6.42295100      -0.38982200      -0.29552600
C        6.87636000       0.51427600      -1.03455000
S        5.23696000       1.32366600      -1.54191700
22
Properties=species:S:1:pos:R:3 energy=4.787491742782046 pbc="T T T"
C       -6.30332200      -0.14540000       1.19229000
N       -5.36825400       0.19769000       0.16652000
C       -5.16874600       1.63552100       0.06026400
C       -4.30576800       2.01160900      -1.09692400
C       -3.00894600       1.23585400      -1.11562000
C       -3.27462600      -0.24257900      -0.92950900
C       -4.11669200      -0.49154500       0.30602600
O       -2.17521400       1.75252900      -0.12418500
C       -1.00409000       1.04614200      -0.14713700
C       -1.13821800      -0.41846100       0.10335600
C       -0.11039400      -0.94304600       1.06945400
N        1.18473900      -0.51195400       0.61571500
C        1.39773300       0.85114900       0.20429200
C        0.15650200       1.70287500       0.49988500
C        2.25797300      -1.42426100       0.57064400
O        2.06704200      -2.61599800       0.93162500
C        3.58094300      -1.00384100       0.11233600
C        4.61784100      -1.92063500       0.07798000
C        5.85366500      -1.49481400      -0.35875700
C        6.05893100      -0.19479600      -0.75170700
C        5.01838200       0.68697000      -0.70725900
C        3.78051800       0.28699200      -0.27672000
24
Properties=species:S:1:pos:R:3 energy=4.787491742782046 pbc="T T T"
C        8.12580900      -0.29811500      -1.36498000
C        6.79504300      -0.20321800      -0.71961300
N        6.56306600       0.41366200       0.45024500
O        5.28816600       0.30278000       0.71310800
C        4.66877900      -0.35545700      -0.22364200
N        5.60322600      -0.68168800      -1.13403300
C        3.24189700      -0.69145500      -0.30265500
C        2.26736900      -0.36877200       0.61590700
N        1.12354500      -0.86719200       0.14911100
N        1.38035800      -1.46566700      -0.99727200
N        2.64665200      -1.37535700      -1.29328900
C       -0.21051100      -0.80634100       0.73574000
C       -0.44978400       0.66623500       1.08502500
C       -1.75230500       1.03904700       0.41418300
N       -2.33952400      -0.21624300       0.03926700
C       -1.26320200      -1.12364400      -0.29694000
C       -3.71624500      -0.55507100      -0.00901300
O       -4.08742600      -1.69922100      -0.35786000
C       -4.69627400       0.45800300       0.35671300
C       -4.29306800       1.74009800       0.74816200
C       -5.25797300       2.64255800       1.07794100
C       -6.59612800       2.29466700       1.02509400
C       -7.01012000       1.03002100       0.63968000
C       -6.03135200       0.12036900       0.30700500
25
Properties=species:S:1:pos:R:3 energy=4.772378104971998 pbc="T T T"
C       -6.79620500      -2.09418000       0.42038100
O       -5.52008700      -1.84529700      -0.13359900
C       -4.99154000      -0.56241000       0.02680300
C       -5.67103700       0.43333000       0.69461000
C       -5.12499600       1.67067800       0.83123400
C       -3.88325900       1.98988400       0.31761700
C       -3.20936200       0.99805600      -0.34610300
C       -3.74622300      -0.25495300      -0.49248100
C       -1.87955900       1.25951900      -0.92271700
N       -0.78793700       1.00186300      -0.05541700
C       -0.78268800       1.77405500       1.16079700
C        0.12511200       1.03198000       2.12266900
C        0.49770100      -0.22169800       1.35222300
C       -0.74090900      -0.35884500       0.45306700
C        1.62826800       0.08070500       0.46452700
N        1.69539500       1.09107000      -0.40239800
N        2.86117200       1.06456300      -1.04015500
C        3.51900800       0.00371700      -0.54194600
O        2.74376900      -0.57958600       0.37519300
C        4.83814500      -0.42240800      -0.93860400
C        5.53696600      -1.51748900      -0.43551700
C        6.74334700      -1.54661400      -1.09409700
C        6.72436200      -0.47456300      -1.96288600
O        5.58303700       0.16246800      -1.83984400
H        0.63752100      -1.09113700       1.98664300
24
Properties=species:S:1:pos:R:3 energy=4.71760561531788 pbc="T T T"
C       -3.06852700       3.80035400      -1.20821200
O       -4.06322300       2.96759200      -0.69254800
C       -3.84526700       1.66307200      -0.26223300
C       -4.92264700       0.95704800       0.22469000
C       -4.76083600      -0.34130500       0.66468200
C       -3.50520400      -0.91417200       0.60714300
C       -2.42542200      -0.22010900       0.12407700
C       -2.61219800       1.05765400      -0.30308400
C       -1.12614600      -0.87585300       0.08756900
C       -0.80974000      -2.15666100       0.48961100
N        0.47093300      -2.40481800       0.30905300
C        1.37998300      -3.50464200       0.52125200
C        2.43675100      -3.65651200      -0.50034000
C        2.88094400      -2.45372100      -1.23469200
N        2.38704500      -1.26567400      -0.52367600
C        1.00484400      -1.26066800      -0.22327700
N        0.03936300      -0.32479900      -0.36147000
C        3.23330100      -0.20127900      -0.15705300
O        4.44321600      -0.31856600      -0.56280500
C        2.82822700       0.94634200       0.60932100
C        3.66458700       1.99041100       0.94027400
O        2.98908600       2.83573300       1.63356600
C        1.75293600       2.44446700       1.79969400
C        1.62799600       1.23610700       1.15158000
20
Properties=species:S:1:pos:R:3 energy=4.626931677769604 pbc="T T T"
C        0.06481900      -2.87070700       0.12974700
C       -1.18172200      -1.99267000      -0.05666400
N       -0.88920400      -0.74419400       0.57966200
C        0.10400800      -1.02314200       1.57509400
C        1.03104700      -1.93721800       0.76353200
O        1.84587000      -1.23457000      -0.10953100
C        2.77256900      -0.34406300       0.41898300
C        3.60659700       0.37874100      -0.41607800
C        4.51894900       1.25671900       0.12532200
C        4.62171000       1.43358100       1.48579900
C        3.81166000       0.73347500       2.32872600
C        2.90177100      -0.14289600       1.77610200
C       -1.46460200       0.49891300       0.28191400
O       -1.15780600       1.56820900       0.88734500
C       -2.46751700       0.62049000      -0.76445600
C       -2.88373400      -0.47448300      -1.49415400
N       -3.82433900      -0.35811500      -2.47486700
C       -4.36768500       0.83566200      -2.75078200
C       -3.99726900       1.96652300      -2.06104400
C       -3.04512200       1.82974600      -1.07319400
24
Properties=species:S:1:pos:R:3 energy=4.525044141508807 pbc="T T T"
C       -4.76878600       2.65983500       0.97657100
C       -5.37691700       1.43211600       0.83185400
C       -4.65506300       0.27590900       0.60229500
C       -3.27353400       0.31590300       0.50890200
C       -2.68667300       1.55030500       0.65617900
C       -3.39435300       2.70610100       0.88465200
C       -2.48621600      -0.87493800       0.26934300
C       -1.11353700      -0.75537600       0.18885600
N       -0.28914000      -1.79317300      -0.02983800
C       -0.82054500      -3.01780000      -0.17958600
C        0.26090200      -3.86366300      -0.38731100
N        1.38619800      -3.09025700      -0.34959600
C        1.02991600      -1.81609500      -0.12833000
C        1.93118900      -0.68131900      -0.01902200
C        1.47287300       0.60030200       0.21072100
C        2.31132500       1.66874300       0.31435600
C        3.67301500       1.52825600       0.19473600
C        4.15552700       0.25539000      -0.03540200
C        3.30581600      -0.82684600      -0.14034500
C        4.55089300       2.67749000       0.30795400
O        4.06682000       3.81097100       0.51688500
O        5.91130100       2.48092300       0.17974500
C       -2.19048900      -3.14828100      -0.10097200
N       -3.00052400      -2.09449500       0.11914100
24
Properties=species:S:1:pos:R:3 energy=4.48863636973214 pbc="T T T"
C       -4.47425100       1.16673600      -1.26561700
C       -4.54997300      -0.03434100      -0.59683800
C       -3.55919200      -0.36905900       0.32902500
C       -2.50308400       0.47396000       0.59258100
C       -2.46082400       1.66625200      -0.09535800
C       -3.43936300       2.01751600      -1.02224900
C       -1.47933600       0.06955300       1.58452600
N       -0.38712200      -0.66735600       0.98248000
C        0.69341300      -0.01344200       0.51867400
C        1.77098800      -0.65704700      -0.06742600
C        2.87018800       0.02344900      -0.53776100
C        2.89903300       1.38796500      -0.42165400
C        1.84511000       2.04338300       0.15406000
C        0.75845700       1.34316600       0.61639900
C        1.83913300       3.49720700       0.29571200
O        0.88554700       4.12171800       0.81951200
O        2.91144900       4.27629300      -0.15193500
N        1.72911500      -2.01346700      -0.17638300
C        0.66265200      -2.69510100       0.27793200
C        0.94474700      -4.02117800       0.01412600
C        2.17574000      -4.10407800      -0.59320900
N        2.62158400      -2.83126600      -0.68894900
C       -0.39177900      -2.00803500       0.85690600
O       -1.36223000      -2.67282900       1.26607900
22
Properties=species:S:1:pos:R:3 energy=4.249922794040544 pbc="T T T"
C        5.51525900       2.38443800      -1.28787100
O        4.36082700       2.52186000      -0.52257700
C        3.45612000       1.45965500      -0.42970200
C        3.66183700       0.26338700      -1.07375900
C        2.74858400      -0.77820600      -0.96673400
C        1.59926300      -0.66507800      -0.21509500
C        1.39386400       0.53674600       0.43118100
C        2.30785300       1.57878400       0.32389700
C        0.64369200      -1.76113100      -0.10581800
O        0.87585900      -2.83732600      -0.71404300
N       -0.54357500      -1.65593100       0.66557900
C       -1.48978800      -2.74610200       0.77166000
C       -2.82318000      -2.26442200       0.24088000
C       -2.75245000      -1.77861000      -1.17204100
O       -3.14095400      -0.41908600      -1.17867300
C       -1.97525700       0.32003000      -1.17623200
C       -2.16059500       1.76774200      -0.87414500
N       -2.30457800       2.06139800       0.52232500
C       -2.74256800       1.15236600       1.50726100
O       -3.49633500       1.52960300       2.43243200
C       -2.31394400      -0.24916800       1.45182400
C       -0.81993500      -0.42094600       1.36965200
29
Properties=species:S:1:pos:R:3 energy=4.787491742782046 pbc="T T T"
C       -2.79513200      -1.67757500      -1.31183200
N       -3.38777900      -0.77267900      -0.30070200
C       -4.80780200      -0.69569900      -0.23409000
C       -5.33305400      -0.06162900      -1.49777100
C       -6.64968300       0.63741000      -1.20131400
C       -7.41171900      -0.22751500      -0.20749700
C       -6.75317400      -0.15487200       1.17217300
N       -5.32799400      -0.03273100       0.91347200
C       -4.50371600       0.73959900       1.80259500
O       -5.00415300       1.40303500       2.72793900
C       -3.06848500       0.71389600       1.57743100
C       -2.55687600      -0.02359200       0.55567600
C       -1.17115900      -0.03377500       0.35677300
C       -0.28772100       0.66672400       1.14375300
C       -0.83415600       1.40664600       2.17334800
C       -2.19365500       1.43643100       2.39405900
C        1.13711800       0.61428400       0.88498800
O        1.90576500       1.26094100       1.61782900
N        1.63149000      -0.15126800      -0.17082100
C        3.00478000      -0.27078400      -0.50939700
C        3.38492400      -1.05747900      -1.57677500
C        4.70784600      -1.20411200      -1.94366600
C        5.71903100      -0.56265700      -1.25055900
C        5.33015400       0.22227100      -0.18429300
C        4.00836100       0.36970600       0.18348800
S        7.39403900      -0.75046200      -1.71787500
O        7.54761600      -0.85874600      -3.20434500
O        8.18709200       0.47508700      -1.29493600
N        8.12804600      -2.09438400      -0.89765200
22
Properties=species:S:1:pos:R:3 energy=4.787491742782046 pbc="T T T"
C        5.91783000       1.67501100       1.47801100
N        4.64730600       1.09119900       1.10908100
C        4.53802500       1.01262400      -0.31679200
C        3.18566500       0.62265200      -0.80110500
N        2.25192800       0.30220500       0.23310000
C        2.31811900       0.87091100       1.57051300
C        3.52894100       1.76966400       1.70890700
C        1.20476800      -0.60788400      -0.03000200
O        1.12121900      -1.11567700      -1.17536000
C        0.20495300      -0.97534600       1.01445700
C       -0.76889400      -1.94778700       0.44420600
C       -0.59962800      -3.30911100       0.48717700
C       -1.68184300      -3.85799700      -0.12702500
C       -2.51701900      -2.85029100      -0.54850900
N       -1.93016400      -1.69871200      -0.18411500
C       -2.43128500      -0.37390900      -0.41055800
C       -3.76592900      -0.15402200      -0.62038700
C       -4.25959900       1.12601000      -0.84044600
C       -3.40996600       2.21482200      -0.85289100
C       -2.05941500       2.00218400      -0.64173500
C       -1.59531600       0.72339100      -0.42589200
F       -3.89969400       3.48006200      -1.07063700
26
Properties=species:S:1:pos:R:3 energy=4.787491742782046 pbc="T T T"
C       -5.43214400      -2.43167700       1.34371000
N       -4.55423700      -1.51470800       0.68565700
C       -5.29887300      -0.48958900      -0.06358800
C       -4.33798800       0.00390000      -1.13734600
N       -3.04077000       0.21435400      -0.55038500
C       -2.78346300       0.12412500       0.87252000
C       -3.68859200      -0.81417000       1.58936400
C       -1.94907200       0.52646600      -1.39296000
O       -2.13504200       0.61281800      -2.63076600
C       -0.59179600       0.75431600      -0.85438100
C        0.31835200      -0.27074300      -0.70222100
C        1.59586100      -0.04497100      -0.19332100
N        1.96311000       1.19781200       0.16195300
C        1.09464100       2.21419100       0.02355500
C       -0.17422600       2.01391100      -0.47765400
C       -0.80674000       3.23156000      -0.49373300
N        0.06026500       4.14477900      -0.01351300
N        1.20682400       3.51871400       0.29618700
C        2.35980100       4.17341500       0.83550300
C        2.55149800      -1.13801100      -0.03653900
C        2.21273400      -2.43183000      -0.39037100
C        3.15381800      -3.43711300      -0.22337700
C        4.40461300      -3.19040600       0.27936400
C        4.73275400      -1.89939800       0.62879800
C        3.79948000      -0.90838300       0.46214100
F        5.33919000      -4.15936300       0.45041500
26
Properties=species:S:1:pos:R:3 energy=4.787491742782046 pbc="T T T"
C        5.27511100       2.68667700       0.44584600
N        3.93338900       2.49549200      -0.03913900
C        3.96228400       1.97360300      -1.38039600
C        3.96812300       0.46530400      -1.30757800
N        2.74308100      -0.01401300      -0.70444300
C        2.02285200       1.05308200       0.03981300
C        3.13927100       1.68920400       0.87445500
C        2.29221300      -1.32163600      -0.78441000
O        3.09961100      -2.10115100      -1.46988000
C        1.14141500      -2.03510700      -0.29034800
N        0.19984500      -2.61878000       0.11390400
N       -0.95564800      -2.82087700       0.59031200
C       -1.78321700      -3.80289900       0.96141700
N       -2.92566300      -3.25949200       1.40282400
N       -2.85065100      -1.91813300       1.31937500
C       -1.66291000      -1.64829200       0.83120400
C       -0.87241500      -0.55801700       0.47075300
C        0.33231700      -0.54069200      -0.01627000
C       -1.64204200       0.72868800       0.66766900
C       -1.27947900       1.55147700       1.69105900
C       -1.98631700       2.77207400       1.85773100
C       -2.99479800       3.09717000       1.02064600
C       -3.35291200       2.25043200      -0.01279400
C       -2.66012600       1.04879100      -0.18544100
O       -3.05037100       0.23079200      -1.23145100
C       -4.09296200       0.59630300      -2.08825000
25
Properties=species:S:1:pos:R:3 energy=4.787491742782046 pbc="T T T"
C        5.67916300      -1.56734800      -0.57346500
N        4.56045300      -0.69160000      -0.41352400
C        3.87482800      -0.51189900      -1.67954500
C        2.49384300       0.05827100      -1.33653300
N        2.66931900       0.90037100      -0.18654700
C        3.91480700       1.59751200      -0.01071400
C        5.00037000       0.55529400       0.16541700
C        1.65217100       1.06454000       0.77931700
O        1.81686500       1.81703400       1.80137400
C        0.35746900       0.41488200       0.70994900
C       -0.74051900       0.96005100       0.08590100
C       -1.95779600       0.31332100       0.03912700
N       -2.06007800      -0.90361900       0.63462400
C       -1.02630000      -1.48444500       1.25700400
C        0.19391400      -0.82864100       1.30001600
C        1.05109700      -1.65354000       1.99308200
N        0.34782800      -2.75818100       2.34296100
N       -0.89555100      -2.65555100       1.90166300
C       -1.91120400      -3.68886600       2.11720400
C       -3.10670300       0.91369900      -0.62934800
C       -4.33555900       0.30900900      -0.70155500
N       -5.39573000       0.87810200      -1.32618400
C       -5.21887500       2.06985600      -1.88531900
C       -4.02368800       2.74514200      -1.86002400
C       -2.94012400       2.14660800      -1.21290900
18
Properties=species:S:1:pos:R:3 energy=4.787491742782046 pbc="T T T"
C       -5.30543000       0.95854100       0.17329200
N       -3.97948500       0.52124400      -0.23278300
C       -3.24047000       0.23682200       0.97848400
C       -1.87718800      -0.33848100       0.70054700
N       -1.73427400      -0.80716100      -0.65482400
C       -2.85182300      -1.30723600      -1.43459600