25
Properties=species:S:1:pos:R:3 energy=2.1041341542702074 pbc="T T T"
C       -1.10118300       3.62360500      -4.57563700
C       -1.01107700       2.73669500      -3.38548400
C       -2.09728600       2.46027000      -2.57031600
C       -1.65714600       1.60262700      -1.56016700
C       -2.25303400       0.99291100      -0.47972800
C       -1.51125200       0.17683300       0.35270700
N       -0.20935300       0.01804200       0.05320100
C        0.39150300       0.60489900      -0.99762100
C       -0.31817500       1.41264100      -1.83133000
O        0.02106400       2.08822400      -2.90050900
N        1.76785200       0.34156800      -1.18229600
C        2.53917700      -0.48171800      -0.35167500
C        3.87740300      -0.70425400      -0.57755100
C        4.59699100      -1.53833300       0.28861000
C        3.98132200      -2.14615000       1.37431400
C        2.65283600      -1.91796700       1.58850100
C        1.94869600      -1.09245700       0.72802800
F        5.90301400      -1.78606000       0.11040400
C       -2.11392100      -0.48898000       1.51340500
C       -2.20963700      -0.00638500       2.80142000
O       -2.81447200      -0.90037500       3.54277500
N       -3.12305400      -1.94327700       2.82023800
C       -2.71208000      -1.73916100       1.55988500
C       -2.82512300      -2.61464300       0.36956700
C       -1.72306600       1.30144600       3.30925800
20
Properties=species:S:1:pos:R:3 energy=2.151762203259462 pbc="T T T"
C        0.70755100       2.46658500      -1.55349900
N       -0.17648000       1.38068500      -1.25394800
C        0.38873400       0.10135200      -1.45374900
C        1.63745300      -0.16153300      -0.68591300
C        2.07936500      -1.46061200      -0.50698700
C        3.23433100      -1.69072800       0.19179100
C        3.98118500      -0.65274000       0.73050100
C        3.51403300       0.62728600       0.53436200
C        2.36275100       0.89274600      -0.15956500
F        3.73726100      -2.94960900       0.41123300
C       -0.97812200       1.53250100      -0.10754700
C       -0.29353700       1.63936500       1.18392600
C       -0.16633500       0.39861600       2.00791800
O       -0.83569800      -0.72702100       1.42256900
C       -2.04223700      -0.50691700       0.72191200
C       -3.09426100      -1.36178100       0.78604600
C       -4.24685100      -1.09429000       0.08053100
C       -4.36016400       0.03145500      -0.69739300
C       -3.30898100       0.90435100      -0.77345100
C       -2.13999800       0.63028900      -0.05619500
23
Properties=species:S:1:pos:R:3 energy=2.2617630984737906 pbc="T T T"
C       -2.01117500      -2.18013400       0.45102800
C       -1.13270100      -3.39027100       0.21306100
O        0.07288200      -2.90251900      -0.29345400
C        0.18063200      -1.52771000      -0.08830400
C       -1.03789900      -1.04980600       0.35657700
C       -1.17025600       0.30493800       0.62968200
C       -0.06056400       1.09786600       0.43643300
N        1.11925300       0.59871600      -0.00059900
C        1.28069700      -0.71242400      -0.27483300
N        2.50927700      -1.26286500      -0.73522900
C        3.61976900      -0.39533900      -0.91588400
C        3.56901100       0.97316500      -0.66469400
N        4.63629000       1.76330100      -0.84586800
C        5.79273800       1.25997500      -1.27671000
N        5.90378500      -0.04278300      -1.53449200
C        4.84625300      -0.84374300      -1.35808500
C       -2.45115400       0.80474600       1.09686300
C       -3.64532600       0.43164800       0.51667800
C       -4.86239800       0.90667700       0.96070500
C       -4.88461800       1.78449900       2.02093800
C       -3.72026800       2.18429600       2.63023300
C       -2.53151800       1.68499700       2.15377800
F       -6.02270800       0.51276900       0.35896900
33
Properties=species:S:1:pos:R:3 energy=2.8507065015037334 pbc="T T T"
C        6.51980900       2.60727900       0.50829000
C        5.53111400       2.41001300       1.64727300
N        4.51377400       1.53011500       1.03170000
C        5.27421000       0.64920400       0.21622500
C        6.48001500       1.26741600      -0.11993800
C        7.39025700       0.61221100      -0.90778200
C        7.13277900      -0.66038500      -1.37853500
C        5.94166500      -1.24878500      -1.03539800
N        5.07849400      -0.58373200      -0.26770100
C        3.12813600       1.60204400       1.23647900
O        2.71298500       2.49003500       2.06901100
C        2.13334600       0.76934400       0.59533600
C        2.39692700      -0.21319700      -0.32182900
C        1.44332100      -0.99712900      -0.92345500
C        0.11104400      -0.81396800      -0.60899900
C       -0.18775400       0.16759900       0.31122500
C        0.77798000       0.94522500       0.90579700
C       -0.92142100      -1.63337500      -1.23384500
N       -0.69340300      -2.60253000      -2.13492300
C       -1.88371100      -3.14162800      -2.48886000
C       -2.82917200      -2.44309800      -1.75204800
N       -2.23236600      -1.51956200      -0.98442100
C       -2.99381700      -0.73369500      -0.18927900
C       -4.38371300      -0.88992600      -0.17499300
N       -4.93223500      -1.82965600      -0.96264900
C       -4.20606700      -2.63090800      -1.76774600
C       -5.23876400      -0.07748800       0.65463000
C       -4.70244400       0.88716100       1.46612700
C       -5.50804100       1.68902400       2.28067000
C       -6.87127700       1.48133800       2.24553700
C       -7.43573400       0.53015800       1.44935500
C       -6.59557500      -0.25478800       0.64622900
F       -4.95036100       2.63568300       3.07352500
26
Properties=species:S:1:pos:R:3 energy=2.856470206220483 pbc="T T T"
C        5.74696300      -4.08387200       2.93554600
C        4.66941500      -3.09565000       2.67595900
C        4.48588800      -2.10560600       3.61275700
C        3.48281200      -1.14532100       3.41936600
C        2.67910100      -1.17582800       2.30943100
C        2.88047600      -2.17371200       1.38710400
C        3.87144100      -3.13704700       1.56068600
N        1.67968000      -0.18689000       2.15512000
C        0.80545500      -0.16436100       1.01447400
O        1.02093400      -1.08989500       0.19751100
C       -0.20888400       0.86334400       0.88652600
C       -1.14970600       1.09979100      -0.08716100
N       -1.85331400       2.21664200       0.30584000
C       -2.85259900       2.95647700      -0.14547800
C       -3.36147900       3.91473500       0.31826600
S       -2.29314300       4.05591000       1.91255300
C       -1.34965900       2.59589700       1.43041000
N       -0.33607500       1.82200300       1.86018600
C       -1.36135500       0.32630300      -1.29208000
C       -0.66310400      -0.76936200      -1.66671100
C       -0.88223400      -1.49087100      -2.81956600
C       -1.88060100      -1.09591100      -3.68107200
C       -2.61785200       0.01616900      -3.33891900
C       -2.37383900       0.72323700      -2.17007700
C       -3.65127000       0.40452100      -4.25499700
N       -4.48705000       0.71929700      -4.98942100
20
Properties=species:S:1:pos:R:3 energy=2.856470206220483 pbc="T T T"
C        0.59855000       2.53934700      -0.14560000
C       -0.74633200       2.65719300       0.34071600
N       -1.42025900       1.36420000       0.14932100
C       -0.43242700       0.33375000      -0.25137200
C        0.67590400       1.04306400      -0.78232100
O        2.04664900       0.81864800      -0.86491600
C        2.75601500      -0.15476600      -0.22538100
C        4.13773000      -0.10111200      -0.34238100
C        5.03239800      -0.89106400       0.24127000
C        4.46647900      -1.92334300       1.09583000
C        3.09350800      -2.00883600       1.24401700
C        2.23173300      -1.15768100       0.60540800
F        6.37418100      -0.80987700       0.15566400
C       -2.84103200       1.21336700       0.34939400
O       -3.46147700       2.20931800       0.71674800
C       -3.56631400      -0.06863000       0.13406500
C       -5.03329200       0.00755200       0.29617500
C       -5.62489000      -1.15779600       0.15997100
C       -5.01726200      -2.29192600      -0.08673900
S       -3.26986300      -1.62140800      -0.15945000
23
Properties=species:S:1:pos:R:3 energy=3.2733640101522705 pbc="T T T"
C       -5.64045500       1.61433800       0.59381800
C       -4.31668500       1.23413600       0.47696600
C       -3.97279100      -0.08309700       0.25921000
C       -4.94739700      -1.02583300       0.15719500
C       -6.28179800      -0.64862100       0.27405600
C       -6.61582000       0.66282900       0.49048800
F       -7.27542400      -1.56266100       0.17730100
C       -2.54565200      -0.42930100       0.14302300
N       -2.00604300      -1.64237400      -0.06728500
O       -0.69491600      -1.51425200      -0.10544100
C       -0.36926000      -0.26953700       0.07154800
N       -1.50645700       0.42169800       0.22799800
C        1.00453800       0.28152700       0.09564600
N        2.14321400      -0.41506100      -0.06168900
C        3.16108300       0.42223300       0.02211700
N        2.60901400       1.62969200       0.23210800
O        1.32243300       1.53589600       0.27446000
C        4.59739400       0.19724000      -0.07585600
C        5.12870000      -1.06472100      -0.29327000
C        6.49014900      -1.28782500      -0.38766900
N        7.35498500      -0.25903300      -0.26773400
C        6.85688100       0.97415000      -0.05620900
C        5.50430800       1.22857800       0.04261300
31
Properties=species:S:1:pos:R:3 energy=3.502549875922443 pbc="T T T"
C        7.60094900       4.64624300      -0.26950400
N        7.27195900       3.26780900      -0.00893700
C        8.13369300       2.25654800       0.24382300
C        7.34843700       1.13335000       0.42723900
C        6.03046700       1.49947800       0.27953800
N        6.01461400       2.80693100       0.01409300
N        4.94908200       0.59948800       0.40119900
C        3.59007900       0.98816700       0.24667300
O        3.37641900       2.19957100      -0.01029700
C        2.48354700       0.05280500       0.37406400
C        1.20984600       0.49957800       0.21293800
C        0.14623200      -0.40130000       0.33571400
C        0.36646100      -1.72732900       0.61581300
C        1.64204300      -2.18280700       0.77880400
C        2.70591100      -1.27249200       0.65413500
C       -0.75395100      -2.63883400       0.73758000
N       -0.68477300      -3.97579700       1.01142400
C       -1.92304500      -4.50047600       1.04853100
C       -2.81641100      -3.48801100       0.79439100
N       -2.07370000      -2.38450500       0.61283700
C       -2.69735300      -1.24031200       0.34709800
C       -4.07115600      -1.12531400       0.24749300
N       -4.80119800      -2.21322500       0.42660100
C       -4.20976000      -3.39329400       0.69779500
C       -4.63848700       0.19339000      -0.05035300
C       -6.00404300       0.37631300      -0.16320400
C       -6.51742100       1.62315900      -0.44353600
C       -5.67860100       2.70557700      -0.61549600
C       -4.30597400       2.55385200      -0.50855300
C       -3.84116500       1.28619800      -0.22671700
F       -7.85269900       1.85523800      -0.56463000
22
Properties=species:S:1:pos:R:3 energy=3.5667118201397288 pbc="T T T"
C       -4.45833100      -1.06288400      -1.67971800
C       -4.24083600       0.01669400      -0.69319700
C       -2.99903000       0.54374200      -0.45992300
C       -2.84092400       1.53928700       0.45910000
C       -3.91001700       2.04115900       1.17362000
C       -5.16493500       1.51576300       0.94479100
C       -5.31226300       0.51644700       0.01980500
F       -6.19360700       2.02937300       1.66171900
O       -1.91721100       0.06160900      -1.15831500
C       -0.60828600       0.60254000      -0.92638900
C        0.39259600      -0.11910100      -1.83652600
N        0.21632400      -1.26624500      -0.93386000
C        0.06788500      -0.27009600       0.13967600
C        1.35089500      -2.11651900      -0.79983100
C        2.55746000      -1.43737100      -0.27405500
C        2.62346400      -0.11954700       0.06429700
C        3.79563200       0.41261200       0.54423600
C        4.92083000      -0.37278300       0.69159500
C        4.88086500      -1.69013600       0.36116100
C        3.69425000      -2.20491700      -0.11891000
C        6.09764500       0.29246400       1.20511200
N        7.04759500       0.82483100       1.61561100
24
Properties=species:S:1:pos:R:3 energy=3.6027767550605247 pbc="T T T"
C       -1.85701100      -3.06931500       0.31606800
C       -0.80266600      -2.62171600       1.25773300
N       -0.08391100      -1.46934500       0.76048800
C        1.19105900      -1.09211500       0.94474700
C        1.44365200       0.08597700       0.27556100
N        0.28481400       0.41704200      -0.32295300
C       -0.62263200      -0.52797300      -0.02140200
N       -2.01060800      -0.70333600      -0.37232900
C       -2.59663500      -1.99854300      -0.39040600
C       -2.79738500       0.43323500      -0.70345000
O       -2.31927200       1.60183300      -0.70129100
C       -4.19856500       0.23523900      -1.05523000
C       -5.07827400       1.24417500      -1.39738800
C       -6.28186500       0.61913800      -1.65085400
C       -6.07440300      -0.72446800      -1.45181500
O       -4.83161600      -0.89890600      -1.10233700
C        2.71782100       0.81597300       0.23396200
C        2.88058400       1.98026500      -0.45645600
C        4.13930600       2.58456900      -0.42269500
C        5.19441700       2.03518600       0.28105400
C        5.01723200       0.87096200       0.96660700
C        3.77623200       0.27876300       0.93102400
C        6.03737300       0.21048400       1.72977900
N        6.87235300      -0.30712500       2.35158400
25
Properties=species:S:1:pos:R:3 energy=3.648057459593681 pbc="T T T"
C       -1.18830500      -0.69572000       0.74399500
C       -0.28588800      -1.31724300       1.79813600
N        0.90932000      -1.73174600       1.09519700
C        1.08100600      -0.60260000       0.16620400
C       -0.30596200      -0.62853100      -0.49273400
C       -0.43716200      -1.85266300      -1.35424400
O       -1.79050900      -2.00761000      -1.74202300
C       -2.44568500      -1.27000800      -2.74633100
C       -3.35353300      -1.98620900      -3.46683800
C       -4.04008300      -1.30918400      -4.48232700
C       -3.82686000       0.00715900      -4.75648700
C       -2.89528900       0.69652000      -3.99960800
C       -2.19473000       0.06570200      -2.98655000
C       -1.27318200       0.98539500      -2.32920100
O       -1.18714000       2.15313500      -2.73909500
N       -0.44355500       0.60426500      -1.21058800
C        2.04485300      -1.91771200       1.93268300
C        2.32612000      -0.59928800       2.60294300
C        3.13803100       0.34225300       2.05702500
C        3.37009200       1.53763800       2.70443000
C        2.77973200       1.80868300       3.93012000
C        1.95204300       0.85861800       4.49515000
C        1.73680300      -0.32194000       3.83243500
C        3.05696500       3.07415900       4.56222600
N        3.27291600       4.10692700       5.05735300
31
Properties=species:S:1:pos:R:3 energy=3.728100167267218 pbc="T T T"
C        0.30232800      -2.74207600      -0.57690400
C        0.90378000      -1.35904700      -0.71482300
C        0.78840100      -0.68638300       0.58561200
C        0.51547700      -1.84408500       1.52603600
N       -0.46833700      -2.58883600       0.68393200
C       -1.49426200      -1.62069300       0.38387300
C       -2.63434800      -2.21545600      -0.38806200
C       -3.60169900      -1.29334300      -0.81665500
C       -4.72706500      -1.77677200      -1.55711300
C       -4.75909100      -3.08220200      -1.77199300
C       -3.84956100      -4.01200000      -1.37991700
C       -2.71391300      -3.55544400      -0.64085500
C       -5.69654000      -0.79827800      -1.94011700
N       -6.52351100       0.01995100      -2.24502500
C       -0.06497200       0.51737500       0.68504800
N        0.91950500       1.14304000       1.53720900
C        1.90886200       0.22671000       1.02480700
C        1.00137900       2.16794200       2.50873100
C        2.26560700       2.67612300       2.95090500
C        2.25501100       3.65558900       3.88731600
C        1.16408700       4.22035500       4.46798800
C       -0.10849500       3.73359000       4.04829600
C       -0.05758300       2.75895400       3.11422100
C        0.54561200      -0.62625200      -1.94630500
O        1.10839400       0.63428300      -1.96363300
C        2.43205300       0.97806000      -1.96291100
C        3.04285700       2.13661200      -1.94756900
C        4.41880700       2.36125100      -1.95378000
C        5.21485300       1.19690700      -1.97990700
C        4.64542400       0.01542500      -1.99647100
C        3.26694000      -0.24130000      -1.99129300
22
Properties=species:S:1:pos:R:3 energy=3.7796338173824005 pbc="T T T"
C       -5.89329900       2.48561800       0.22479100
C       -5.03152700       1.37103800       0.74271400
C       -5.56810300       0.30844900       1.42717700
C       -4.77344500      -0.70610900       1.89711000
C       -3.41744600      -0.63414900       1.66539100
C       -2.82588000       0.40680200       0.98561600
C       -3.65738700       1.40798800       0.52852000
O       -1.45338300       0.41146900       0.79015500
C       -0.75614900       1.41536300       0.11701300
C        0.72932200       1.11556500       0.08024600
N        0.46448100       0.26925600      -1.07261600
C       -0.66320900       1.13423700      -1.36888800
C        1.50093400       0.26732800      -2.07445100
C        2.80332700      -0.20573500      -1.53636600
C        3.62855400       0.76462000      -1.00416800
C        4.85702000       0.42314900      -0.48103600
C        5.23934900      -0.90170700      -0.50184400
C        4.41972400      -1.87279300      -1.03152700
C        3.20128100      -1.50421000      -1.54588200
C        6.53633300      -1.22596900       0.05581200
N        7.58537200      -1.48286400       0.48799800
F       -6.92586900       0.31495600       1.61423300
24
Properties=species:S:1:pos:R:3 energy=3.8918202981106265 pbc="T T T"
C       -4.87406400       0.88027800       0.23326500
C       -4.05944800      -0.32220700      -0.03052700
C       -4.65199200      -1.54301600      -0.32676100
C       -3.92040600      -2.67663000      -0.57616900
C       -2.54515500      -2.61926600      -0.53526300
C       -1.96416700      -1.41909300      -0.24406800
C       -2.69347400      -0.23927500       0.01614500
C       -1.96308400       0.98244900       0.31531800
C       -0.57606800       1.04045700       0.35673200
C       -0.17850500       2.32406200       0.66363800
N       -1.35171600       3.01009800       0.79978700
N       -2.38350100       2.19685700       0.58965200
N        1.10940400       2.69683700       0.77636600
C        2.06690400       1.79196100       0.58492500
C        1.71804100       0.50226200       0.27757800
N        0.42709600       0.15283400       0.17022400
C        2.79210200      -0.47889000       0.07073500
C        4.11358800      -0.13958900       0.17639600
C        5.11437100      -1.07357100      -0.02092000
C        4.80065400      -2.38083600      -0.33167100
C        3.46972700      -2.72176300      -0.43790000
C        2.47002600      -1.78641200      -0.24024300
F        6.43499900      -0.75286100       0.08040000
H       -3.35533300       2.57531300       0.65822000
33
Properties=species:S:1:pos:R:3 energy=3.927896354584436 pbc="T T T"
C       -5.18378500      -3.48140700       0.35033000
C       -4.59192700      -2.21344100       0.34375100
C       -5.38157500      -1.11306500       0.55670600
C       -6.73119800      -1.28961200       0.77023400
C       -7.32386900      -2.53240300       0.77879100
C       -6.53521400      -3.64860400       0.56484500
F       -8.67093300      -2.65585300       0.99576900
C       -4.77553400       0.22690400       0.55301500
C       -3.42593900       0.40361700       0.33947900
N       -2.90525600       1.66728300       0.34452700
C       -3.67749700       2.74663100       0.55304800
C       -2.82932700       3.84031800       0.49070700
N       -1.59009200       3.37652300       0.24884100
C       -1.62220000       2.03434500       0.15607100
C       -0.50346400       1.12558500      -0.09812500
C        0.77894600       1.59470600      -0.27905000
C        1.84308000       0.72346900      -0.52132800
C        1.64607800      -0.63951500      -0.58790300
C        0.36501200      -1.11046500      -0.40733600
C       -0.69335600      -0.23649500      -0.16582700
C        2.77018400      -1.54468800      -0.84272200
O        2.52289200      -2.77304600      -0.89086000
N        4.08499300      -1.09883200      -1.03094500
C        5.14620600      -2.06136500      -1.27939000
C        6.47286300      -1.31178600      -1.44740600
C        6.70486200      -0.56575800      -0.15896400
N        7.93173300       0.19351400      -0.17272300
C        9.11929800      -0.27432600       0.22492100
C       10.05890700       0.71674600       0.07444800
N        9.42809900       1.79226800      -0.41933700
C        8.12077200       1.46111800      -0.56797100
C       -5.02242000       2.56463300       0.76541300
N       -5.53033900       1.31149100       0.75899200
18
Properties=species:S:1:pos:R:3 energy=3.933784497209659 pbc="T T T"
C       -1.15963000      -0.06665400       0.49795400
C       -2.64898800      -0.32857000       0.52495100
O       -3.32317400       0.44353300      -0.41627800
C       -2.55039500       0.67110900      -1.55248700
C       -2.22130700      -0.64030400      -2.26142800
C       -1.52840800      -1.60781900      -1.31249100
N       -0.56935300      -0.86829600      -0.55506000
C        0.51805400      -1.68714100      -0.06142600
C        1.46758300      -0.85558000       0.71037300
C        1.29420000       0.50054600       0.90111300
C        2.21512300       1.21519600       1.62948100
C        3.34044400       0.61076000       2.19449400
C        3.51842500      -0.75452400       2.00459200
C        2.57657400      -1.43812700       1.27007100
C        2.07552200       2.62863800       1.85379400
N        1.94807200       3.76710100       2.04857300
O       -3.41093300      -1.20541100      -2.71136600
H       -1.54180800      -0.38445600      -3.09660500
22
Properties=species:S:1:pos:R:3 energy=3.9512437185814275 pbc="T T T"
C       -6.96722000      -0.19393400      -0.66862500
C       -6.14206300      -1.07164700      -0.00030700
C       -4.77820000      -0.84334500       0.03735100
C       -4.19043900       0.24405200      -0.57490300
C       -5.01713900       1.11967900      -1.24210700
C       -6.38041900       0.90060000      -1.28554900
C       -2.74749300       0.44769000      -0.51098300
N       -1.98953700      -0.43453800       0.15113900
C       -0.64648800      -0.24795000       0.21250400
C       -0.03512400       0.83129200      -0.39135800
C       -0.84129200       1.72317500      -1.06607500
N       -2.18522300       1.50076200      -1.10479500
N        1.38311800       1.01327600      -0.31703300
C        2.17832900       0.06935000       0.38924100
O        1.58359600      -0.89178000       0.92029100
C        3.64286600       0.22600000       0.48584600
C        4.40692300      -0.69118100       1.17079100
C        5.78654900      -0.57031600       1.27875200
C        6.42979800       0.50313800       0.68298100
C        5.67418100       1.43012400      -0.00706400
C        4.28694000       1.28928600      -0.10335800
F        6.54833700      -1.45583700       1.94326000
25
Properties=species:S:1:pos:R:3 energy=4.036008985209137 pbc="T T T"
C       -5.46610200      -1.21847400       0.12487800
C       -4.96861700      -0.28972300       1.23948400
C       -5.97124500       0.78086400       1.53113800
C       -4.78050500      -1.13617000       2.51748000
C       -3.63047000       0.27558700       0.91966000
C       -3.24848100       1.62629600       1.06507600
O       -1.99884000       1.75402400       0.71320800
C       -1.54737300       0.43396200       0.31032700
N       -2.51551600      -0.25723900       0.47175600
C       -0.12990200       0.38283000      -0.12998000
C        0.41925800       1.77646800      -0.29598700
O        0.69069500       2.10900300      -1.62477400
C       -0.33595600       1.77463200      -2.51189000
C       -0.84877300       0.36158000      -2.32575700
N        0.04140300      -0.36774800      -1.37844800
C        1.37005000      -0.12295500      -1.82560800
C        2.45893400      -0.71629400      -1.11515600
C        3.22540800      -0.24109300      -0.14646900
C        4.28887400      -0.66121800       0.50326400
C        4.76838400      -1.98554700       0.06427700
C        4.00967400      -2.51439600      -0.93762100
C        2.92949900      -2.03067700      -1.55924800
C        5.05656100      -0.03963200       1.45514600
N        5.73112000       0.50765600       2.31929300
H        0.45192000      -0.20173500       0.61595000
24
Properties=species:S:1:pos:R:3 energy=4.050044303325521 pbc="T T T"
C        0.38905100      -0.19075300       0.21277700
C       -1.03756800      -0.68342000       0.33759700
C       -1.80408400       0.56528000      -0.10138900
C       -0.93883400       1.01988800      -1.26244700
N        0.38684600       0.91577000      -0.69433100
C        1.40875500       0.69564700      -1.69265500
C        2.70994700       0.60938400      -0.97203800
C        3.22907200      -0.57684400      -0.49735900
C        4.43861900      -0.58077600       0.16012000
C        5.11140800       0.61150600       0.33172300
C        4.63249300       1.81769600      -0.12436300
C        3.41465300       1.79669400      -0.78229600
C        5.03943200      -1.78569800       0.68220800
N        5.52666100      -2.74713800       1.08397400
C       -3.18185100       0.25591800      -0.49660700
C       -4.24403500       0.87125900       0.10371800
C       -5.56533900       0.58759400      -0.26147800
C       -5.79675800      -0.33889600      -1.25478200
C       -4.70690600      -0.94330100      -1.84216800
N       -3.42896600      -0.64460600      -1.46315600
C       -1.39217600      -1.06391800       1.75586500
O       -1.27046900      -0.01374400       2.63348800
H       -1.18636200      -1.48898800      -0.37842600
H       -1.73359000       1.31144700       0.69327400
27
Properties=species:S:1:pos:R:3 energy=4.08260930600368 pbc="T T T"
C       -3.81466300      -0.35723500       0.86934300
C       -4.13286600       0.58096900       2.00649700
O       -3.49255600       0.28776200       3.18425200
C       -2.37150600      -0.47624100       2.94436700
C       -1.64590500       0.02857600       1.68265900
N       -2.42697500      -0.37478000       0.57981000
C       -2.00792100      -0.07063100      -0.72134300
C       -1.87002100       1.35064800      -1.08253500
C       -1.17345400       1.76368100      -2.21239800
N       -1.23193000       3.09811000      -2.26919400
C       -1.92910400       3.56170500      -1.23560000
N       -2.31583600       2.47184900      -0.51315700
C       -0.24967700      -0.52203000       1.67920700
N        0.38953100      -1.05856900       2.73560300
C        1.62942800      -1.44998900       2.36922800
C        1.76885300      -1.14916000       1.04520000
N        0.60263000      -0.58421800       0.65778500
C        2.93768300      -1.37870300       0.18115900
C        2.93997300      -1.02332400      -1.14363300
C        4.05564100      -1.25265300      -1.93041800
C        5.19329800      -1.84039900      -1.41679300
C        5.20665900      -2.20344800      -0.08648100
C        4.08334900      -1.96485400       0.67708100
F        3.96187300      -0.86588500      -3.23080400
H       -1.64665100       1.12120200       1.78018500
H       -2.87166400       2.55359700       0.33797500
H        0.41181200      -0.24598100      -0.32000200
22
Properties=species:S:1:pos:R:3 energy=4.141546163706395 pbc="T T T"
C        1.20203400      -2.99450900       1.67022600
C        1.77566600      -1.71246800       1.08887100
C        0.85920900      -1.90772800      -0.10233800
N        0.06759600      -2.80772100       0.75041600
C       -0.93703200      -2.01474300       1.43409900
C       -1.81016500      -1.36028500       0.41472400
C       -1.54094000      -0.13180300      -0.10859400
C       -2.35878700       0.45511900      -1.04817900
C       -3.48323000      -0.23678200      -1.46219100
C       -3.76561800      -1.47838900      -0.94077600
C       -2.92981900      -2.03566200      -0.00547700
C       -4.38606400       0.30349300      -2.43637600
N       -5.09923000       0.75273200      -3.22447300
O        1.48734500      -0.56045300       1.84466400
C        1.95437100       0.68326700       1.43313300
C        2.71228200       0.84303800       0.29282800
C        3.19377600       2.05646100      -0.14875700
C        2.89204800       3.17087900       0.60498500
C        2.13177500       3.05524500       1.76032300
C        1.67325900       1.83414500       2.16409100
F        3.36658200       4.35880000       0.16771300
F        2.99494400      -0.27263500      -0.42803300
32
Properties=species:S:1:pos:R:3 energy=4.14946386144318 pbc="T T T"
C        5.75006600      -0.58018900      -6.24722600
C        4.99002500      -0.62655700      -4.96329600
C        5.49651600      -0.15955700      -3.77543200
C        4.76635900      -0.21751500      -2.58877100
C        3.49923800      -0.75294300      -2.57815200
C        2.99014300      -1.22163700      -3.76759200