28
Properties=species:S:1:pos:R:3 energy=0.0033169983665033167 pbc="T T T"
C        1.65254700       2.55348100      -2.56492800
C        1.91952800       1.11115900      -2.19377500
N        1.00554200       0.68164000      -1.14738700
C        1.20808100       0.76671100       0.29769600
C        0.04649800      -0.00229800       0.88187400
C        0.43227300      -1.46348000       0.87277600
C        1.64916300      -1.77857000       1.66789100
N        2.85567600      -1.09049700       1.21913000
C        3.91028700      -1.53562300       2.14480700
C        5.27609600      -1.37680900       1.56888000
O        5.43376400      -2.04552600       0.35417600
C        4.53773300      -1.44630200      -0.54219000
C        3.12038700      -1.62033400      -0.11992800
C       -1.03153200       0.22653400      -0.15199100
C       -1.55126400       1.62311700      -0.08577500
C       -2.16898400       2.10651400       1.05295800
C       -2.64773300       3.38947900       1.11688600
C       -2.53451100       4.26415200       0.04046000
C       -1.91981700       3.78376000      -1.09318900
C       -1.44016400       2.49481400      -1.15400400
C       -2.11778700      -0.77012900      -0.05841400
C       -2.87280700      -0.89899700       1.08696400
C       -3.89007300      -1.85805200       1.12286600
C       -4.16028500      -2.67670000       0.05053800
C       -3.38967500      -2.53009500      -1.08927100
C       -2.37537900      -1.57483300      -1.12712300
C       -0.26205400       0.09502800      -1.41442800
O       -0.68550800      -0.42814400      -2.45952300
35
Properties=species:S:1:pos:R:3 energy=0.0033169983665033167 pbc="T T T"
C       -6.36297300      -2.39126700       2.22351500
O       -5.18079700      -1.61434800       2.37204300
C       -4.15376800      -1.70968000       1.45574600
O       -4.21889100      -2.47361800       0.46882900
C       -2.93780900      -0.89165000       1.63434800
C       -2.86676200      -0.08785200       2.67076000
C       -4.01420400      -0.01572500       3.64727100
N       -1.74675000       0.71826700       2.90991300
C       -0.65577800       0.67306000       2.01620500
C        0.55293200       1.54771600       2.24350800
C       -0.68097300      -0.11514900       0.96566800
C        0.46640400      -0.14167200       0.05904000
O        0.44012800      -0.89114200      -0.98338400
O        1.63732900       0.58555500       0.20421200
C        2.67369600       0.46125500      -0.78414700
C        3.84431200       1.27323000      -0.43896600
N        4.49352200       0.95921900       0.76883000
C        3.80954400       1.23681800       1.98739300
C        5.89893100       1.21938800       0.81159000
C        6.64316900       0.45349800      -0.21975000
C        5.91167900      -0.34101100      -1.07049300
C        6.60728100      -1.05085000      -2.02625400
C        7.97502000      -0.98195100      -2.14173800
C        8.69436200      -0.18305600      -1.28392600
C        8.01406000       0.53262100      -0.32328000
C       -1.83865400      -0.97586000       0.67599400
C       -2.40253500      -0.75976300      -0.67771200
C       -2.12809700      -1.54248800      -1.76883200
C       -2.71989200      -1.23656400      -2.97766800
C       -3.57958400      -0.17126000      -3.13384600
C       -3.86650500       0.63345300      -2.02896300
N       -4.75637800       1.75085600      -2.15914000
O       -5.30190000       2.04948700      -3.21793100
O       -4.98494000       2.49631300      -1.02855200
C       -3.26517800       0.30316300      -0.85028500
20
Properties=species:S:1:pos:R:3 energy=0.005233856719005233 pbc="T T T"
C        3.50307300       2.66796300       0.77463600
C        4.40307500       1.89985900      -0.19319500
N        3.89568400       0.52668500      -0.21505300
C        4.69614500      -0.28187700      -1.11792000
C        4.23130700      -1.69742200      -1.18664100
C        3.88461200      -0.02858900       1.12571600
C        2.85627300       0.68002000       1.95843900
N        1.51754500       0.58774600       1.46304200
C        0.84744200      -0.65574700       1.29295500
O        1.46155900      -1.69293100       1.58991000
C       -0.53877700      -0.68965800       0.77679400
C       -1.25604700      -1.85847600       0.68777200
C       -2.54900900      -1.87800200       0.20529600
C       -3.13084900      -0.70448000      -0.19463400
N       -4.47496400      -0.65915900      -0.70487000
C       -5.04819700       0.57910000      -1.11673600
C       -6.42027800       0.65094900      -1.64164400
O       -4.33610000       1.60194700      -1.01305900
C       -2.40710400       0.46933800      -0.10403900
C       -1.13539100       0.48273400       0.37137000
24
Properties=species:S:1:pos:R:3 energy=0.0033169983665033167 pbc="T T T"
C       -5.10983300       0.60804500       1.24592600
N       -3.74054400       0.43696200       0.80442900
C       -3.50501000      -0.92891100       0.35669200
C       -4.01753400      -1.01733000      -1.05440200
C       -4.20502200       0.42349400      -1.51453700
C       -3.46512000       1.18200400      -0.41100700
C       -2.01338400       1.12911700      -0.72829100
C       -1.23903200       0.11438800       0.05636000
O       -0.09647300      -0.26231700      -0.68638700
C        1.17047600      -0.01016000      -0.24372900
O        1.30522100       0.57547600       0.85966100
C        2.40059000      -0.38549400      -0.98619900
C        2.46259900      -1.86842700      -1.25928800
O        2.45220500      -2.56235700      -0.04658900
C        3.61324200       0.01768100      -0.25648200
C        4.72114800      -0.79265200      -0.20671800
C        5.83802100      -0.38993900       0.48175300
C        5.85298700       0.82736000       1.12525500
C        4.75529800       1.64477000       1.08356600
C        3.64672000       1.22342400       0.38889100
C       -2.01908300      -1.14214700       0.34165800
H       -4.04126300      -1.63120100       1.00692900
H       -3.88370200       2.19917000      -0.33762200
H       -0.88250700       0.60904300       0.98173900
11
Properties=species:S:1:pos:R:3 energy=0.0 pbc="T T T"
O       -2.27158400       1.16204800      -0.22032300
C       -1.18597800       0.49938600      -0.10576900
N       -1.20280000      -0.84077200       0.00901000
C       -0.09060900      -1.58238000       0.13178500
C        1.14124100      -0.95528800       0.14275000
F        2.30124100      -1.66639000       0.26542400
C        1.13539200       0.42331000       0.02345500
O        2.27149900       0.99568900       0.03408700
N        0.00404200       1.12732500      -0.09708600
H       -2.13468900      -1.34490000       0.00328400
H        0.03224400       2.18197200      -0.18661700
22
Properties=species:S:1:pos:R:3 energy=0.0299029902990299 pbc="T T T"
N       -5.12402300       0.39352900       0.65293900
S       -3.85638900      -0.80686200       0.72294900
O       -4.31972800      -2.11135000       0.16404200
O       -3.47865700      -0.92136900       2.16998500
C       -2.50864400      -0.14771600      -0.15389100
C       -1.31647300       0.04189900       0.48472500
C       -0.19603700       0.55394200      -0.10804800
C        1.03418100       0.70299500       0.71337500
O        0.67308600       0.68381500       2.07270200
N        1.69068200       1.95333700       0.49689700
C        3.01519400       1.74943200       0.07280900
O        3.92058600       2.60154800      -0.22180200
C        3.19194300       0.29192000       0.02371900
C        4.30811900      -0.45666500      -0.33064900
C        4.23094000      -1.82680000      -0.29857800
C        3.06745400      -2.46160300       0.07839800
C        1.96659400      -1.73181500       0.42807000
C        2.03246600      -0.33204300       0.39963500
C       -0.24772300       0.90481300      -1.41926800
C       -1.44394500       0.73056000      -2.11755400
C       -2.57242200       0.20475800      -1.48453600
Cl      -4.06720400      -0.01632500      -2.34592100
46
Properties=species:S:1:pos:R:3 energy=0.0015668233490015668 pbc="T T T"
N        6.13338600       1.03202900      -2.87247000
C        5.93397200      -0.17338000      -2.08699100
C        5.00663900       0.19494500      -0.94357800
O        4.75355400      -0.90579300      -0.12695000
C        3.58747100      -0.54161200       0.63627800
O        2.70223100      -0.09536000      -0.30845200
C        1.58244200      -0.84632400      -0.51712700
C        1.55670100      -1.43306700      -1.93632600
N        2.33346600      -2.64171200      -2.03268600
C        0.13938400      -1.73414100      -2.35438500
C       -0.76023900      -2.02216300      -1.17230500
N       -0.29664900      -3.17462900      -0.41630100
C       -0.90320100      -0.83110600      -0.24498300
O       -1.97904800      -0.08726700      -0.65894800
C       -2.91881200       0.13262900       0.36784900
O       -3.11511200       1.48892100       0.44829900
C       -4.16654500       1.88039000       1.23687400
C       -4.00681900       1.40057800       2.65658800
O       -5.12066800       1.84672700       3.37686900
C       -5.46888400       1.39324900       0.62485300
O       -5.54317400       1.83635200      -0.68019500
C       -5.40656000      -0.11888400       0.61757900
N       -5.56370300      -0.66411900       1.94799700
C       -4.18121700      -0.61274600      -0.08301300
O       -4.34643600      -0.37446300      -1.45336500
C        0.35209600       0.00351900      -0.42097800
O        0.49418100       0.92834200       0.58207100
C        3.98610300       0.54555000       1.58893800
N        2.91044000       0.86558200       2.47556400
C        4.49866800       1.77061800       0.85310500
C        5.59051700       1.29807400      -0.09371900
O        6.03121600       2.36816300      -0.86072800
H        4.08348600       0.62228100      -1.40383400
H        3.31884200      -1.44724500       1.17277700
H        1.50865500      -1.71377800       0.17288600
H        1.94715500      -0.64076500      -2.60344700
H       -1.75631500      -2.28794300      -1.58273200
H       -0.94266400      -1.13728000       0.81695100
H       -2.59582100      -0.34387200       1.30975500
H       -4.20974800       2.98357200       1.23044100
H       -6.32476800       1.70942000       1.22360700
H       -6.28821800      -0.46308500       0.02679800
H       -4.05088500      -1.68280400       0.14019900
H        0.20834500       0.54451500      -1.40751900
H        4.83724900       0.17766000       2.23779200
H        6.44928500       0.95042100       0.51695900
25
Properties=species:S:1:pos:R:3 energy=0.0016501650165016502 pbc="T T T"
C       -6.40885900       1.31426500      -2.16342800
C       -6.14338300       0.05492000      -1.39646400
C       -4.81426100      -0.58428200      -1.76402800
N       -4.63369200      -1.77774300      -0.99557200
C       -3.40199200      -2.44092800      -1.28345900
C       -2.17677500      -1.67464500      -0.82721700
O       -1.08097000      -2.49029600      -1.19943300
C       -2.13906500      -1.55204100       0.68467900
O       -0.92628300      -0.96866200       1.11172600
C       -0.50998800       0.29996400       0.72830100
C       -1.30661100       1.05078800      -0.11602900
C       -0.85637700       2.31697600      -0.47840800
C        0.34517300       2.79809500      -0.00622400
C        1.12665700       2.03946100       0.83304900
C        0.70685700       0.76458700       1.21771300
C        1.49203900      -0.06430800       2.09401600
O        1.08293100      -1.19078800       2.40829400
C        2.77309500       0.43739100       2.60700800
C        3.91178700      -0.19108900       1.86611900
C        3.88396400       0.08999000       0.41497900
C        3.20648400      -0.76409300      -0.43003300
C        3.13746300      -0.56725800      -1.79294600
C        3.77161000       0.52874100      -2.33526500
C        4.45443000       1.39641000      -1.51573600
C        4.50576700       1.17454500      -0.16258600
19
Properties=species:S:1:pos:R:3 energy=0.0018168483515018166 pbc="T T T"
C       -2.76971100       2.83757000      -0.30470300
C       -3.18448900       1.88839000       0.80910800
C       -3.19395800       0.50527600       0.20591100
C       -4.39501700      -0.08492800      -0.09961800
C       -4.44205700      -1.34717500      -0.63286800
C       -3.24941100      -2.00662500      -0.85493700
C       -2.02838100      -1.44548900      -0.55828100
C       -0.69523600      -1.78683600      -0.63815100
C        0.07854800      -0.74882300      -0.16683800
C        1.59822200      -0.70691000      -0.07302800
O        1.97581000      -1.89309300       0.58475200
C        1.94289200       0.43122200       0.85216900
N        3.29872000       0.51215900       1.21324700
C        4.21396900       0.85246200       0.16066500
C        4.20735200      -0.25277200      -0.91013600
C        5.63084700       1.04746000       0.72211600
C        3.76294900       2.16708300      -0.48140100
O       -0.75648700       0.19616600       0.19102400
C       -1.99456100      -0.16513400      -0.01903300
35
Properties=species:S:1:pos:R:3 energy=0.0015668233490015668 pbc="T T T"
C        0.25748100      -3.67797700       1.06130500
C        0.41666900      -2.16771300       1.18820400
C        0.43229500      -1.78294400       2.66663500
C       -0.68489000      -1.46477000       0.47991100
N       -1.75199200      -2.21767600       0.12586800
C       -2.83342000      -1.72115300      -0.49257800
N       -3.92310000      -2.56726200      -0.84019400
C       -5.08342800      -2.03403200      -1.50832800
S       -3.84652000      -4.24975600      -0.45599500
C       -3.72555600      -4.49500700       1.29762800
O       -2.57949000      -4.84750700      -1.05107600
O       -4.98432900      -5.00558600      -1.04678700
N       -2.83450000      -0.41238300      -0.76270500
C       -1.83387800       0.42222500      -0.45730300
C       -1.86106400       1.84773200      -0.76540100
C       -0.77694600       2.46769200      -1.30602100
C       -0.75190600       3.82392300      -1.61853300
C       -1.90365400       4.55637300      -1.35563500
F       -1.89405700       5.89096100      -1.65789600
C       -3.01648600       3.96897400      -0.81146500
C       -2.98182700       2.61475600      -0.52115900
C       -0.71735200      -0.13477400       0.18956100
C        0.40277800       0.71037500       0.50994000
C        1.48849000       0.24372500       1.04855100
C        2.58841600       1.20463100       1.34055300
O        2.31585100       1.81159200       2.54865400
C        3.88779600       0.43184200       1.35599800
C        4.08461100      -0.20528500      -0.00119900
O        3.06118500      -1.08515600      -0.34251900
C        4.21949800       0.87903300      -1.04845400
C        5.39847600       1.74009400      -0.72622900
O        6.07620800       1.49766800       0.27963500
O        5.70235300       2.80661000      -1.58386900
H        2.62973500       1.95912300       0.52589300
H        5.02254900      -0.80835000       0.04594500
35
Properties=species:S:1:pos:R:3 energy=0.0016501650165016502 pbc="T T T"
N        8.03841100       3.39339100       0.09749300
C        7.46940400       2.25797300       0.26033100
N        8.24455500       1.13671500       0.62806700
C        6.03399800       2.09938500       0.07324600
C        5.28601400       3.19279600      -0.28407500
C        3.92799200       3.02264400      -0.45661100
C        3.29888700       1.82194300      -0.28866300
C        1.85386600       1.72885500      -0.49162300
O        1.19247100       2.73498400      -0.81561700
N        1.14560300       0.51483500      -0.33363400
C       -0.26363600       0.36695500      -0.51894800
C       -0.57905200      -0.50753700      -1.73976400
C       -0.01218200      -1.85916900      -1.60555800
C        1.26019700      -2.10322100      -2.07319800
C        1.85575100      -3.33701700      -1.98353800
C        1.15403200      -4.37743800      -1.40180600
O        1.80091100      -5.60231700      -1.33618100
C       -0.10932400      -4.16118300      -0.93029900
C       -0.70176300      -2.90325100      -1.02792100
C       -0.97590900      -0.20732700       0.61967400
O       -0.36177500      -0.52853900       1.65132900
N       -2.36817700      -0.40646200       0.56796100
C       -3.18919000      -0.07095900      -0.57956100
C       -4.31574000       0.84460400      -0.14852200
C       -5.01187700       0.38637600       1.08882100
O       -5.72870200      -0.77525200       0.94425400
C       -6.72987900      -0.73010900       0.01113800
C       -7.69907400       0.31453900       0.37612700
O       -8.69605500       0.52577000      -0.34239000
O       -7.50970400       1.06404100       1.51313100
C       -3.99890800       0.15391500       2.20924900
C       -3.09957000      -0.98406700       1.70731600
C        4.04442300       0.72812900       0.06836800
C        5.40240000       0.87928100       0.24509300
H       -0.65839700       1.38671500      -0.80459900
31
Properties=species:S:1:pos:R:3 energy=0.0018168483515018166 pbc="T T T"
C       -3.77801200      -2.03148700       1.49825000
C       -4.10690200      -1.88578400       0.03805500
C       -4.51267100      -0.44974300      -0.34545800
O       -4.87021800      -0.43090300      -1.66522900
C       -5.57051300      -0.02318600       0.56792700
O       -6.41280600      -0.87040600       1.00771300
O       -5.63130600       1.31167300       0.87115400
C       -4.49324400       1.97298500       1.43011400
C       -3.28818800       1.45639600       0.83301600
C       -3.29008800       0.40153100      -0.07363000
C       -2.15199000      -0.02542000      -0.64445400
C       -0.99222200       0.63722100      -0.27376400
N       -0.87216500       1.60430600       0.58111400
C       -2.04589400       2.00366300       1.14553000
O       -2.04871500       2.93155300       2.03687600
C        0.50654700       2.06724200       0.70641400
C        1.31157100       1.06366600       0.00237500
C        2.63608700       0.67840400      -0.15389500
C        2.93743200      -0.43645800      -0.94068400
C        4.31123300      -0.85096100      -0.69825500
C        4.99880100       0.26349700      -0.13407700
N        5.52440600       0.55117000       1.01079500
C        5.84757400       2.02189200       0.98043800
C        6.31493300      -0.07555700       1.88867200
C        4.60691700      -2.08173200      -1.15989300
O        5.85646200      -2.61301300      -1.00691300
C        3.64986000      -2.92918600      -1.80680800
C        2.35368100      -2.50560800      -2.01668500
C        2.02766700      -1.17458600      -1.55590900
N        0.77330800      -0.84813000      -1.45137100
C        0.40845500       0.26696000      -0.67141500
35
Properties=species:S:1:pos:R:3 energy=0.0019001900190018998 pbc="T T T"
C       -5.24143100       1.45630800       0.61330200
C       -3.78936800       1.47621700       1.08718800
C       -3.52272500       2.91298800       1.55501400
O       -3.60596600       0.62154500       2.14422300
C       -2.56831600      -0.22387800       1.82607600
C       -1.20639500       0.32346300       2.22038000
C       -0.43127700       0.52179700       0.96762700
C        0.98909200       0.01884600       1.02414400
C        1.80092800       0.62433600       2.10383000
C        3.12473800      -0.15834500       2.16425500
C        3.74658100       0.07476200       0.84170100
C        4.93175300       0.63455200       0.79056800
C        5.56877500       0.87857900      -0.51486500
O        6.70350300       1.41424400      -0.55858400
C        4.83874800       0.47999800      -1.70598900
C        3.65986900      -0.07590300      -1.60778000
C        2.96883200      -0.35141200      -0.34468500
C        2.86203700      -1.87798500      -0.23811500
C        1.59055500       0.26436400      -0.35945700
F        1.72481800       1.60015900      -0.63309800
C        0.80335900      -0.38299800      -1.44314200
O        0.90704700      -1.79263200      -1.39637000
C       -0.69353800      -0.09361600      -1.36086400
C       -1.13512900      -0.45431100       0.01057300
C       -0.82776200      -1.87694000       0.33479700
C       -2.57272900      -0.15455000       0.31344500
C       -3.44281300      -1.18701900      -0.30182500
O       -3.23026000      -2.36253700      -0.14915500
C       -4.59520900      -0.75148500      -1.12004800
O       -5.30907400      -1.83617300      -1.62479600
O       -2.94903700       1.12727500       0.05440900
H       -2.71293500      -1.26646000       2.12271700
H       -0.53005300       1.51583700       0.50684100
H        0.94680800      -1.07348400       1.16959500
H        1.19657400      -0.02554300      -2.41302600
18
Properties=species:S:1:pos:R:3 energy=0.0019835316865019835 pbc="T T T"
C       -3.04221400      -0.24078100      -2.63685400
C       -3.47850900      -0.01033200      -1.41500900
C       -3.31063300      -1.07543500      -0.39730400
C       -2.47976300      -0.56143300       0.72407300
C       -3.11602000      -0.23003500       1.87720600
C       -2.42185000       0.25163000       2.95636500
C       -1.05561500       0.39288400       2.84644000
C       -0.42798000       0.05082300       1.66963300
C       -1.10536700      -0.43219700       0.57916900
O       -0.54544100      -0.78117500      -0.59158000
C        0.73272500      -0.78560000      -1.07473800
C        1.43849500       0.56012600      -1.11229700
O        0.69140000       1.46375300      -1.90220400
C        2.78936700       0.36711100      -1.84007000
N        3.56923200      -0.54594400      -1.04028700
C        4.00989800      -0.00695100       0.20843900
C        2.87574400       0.35363500       1.10858300
C        4.87653200       1.22991900       0.04043400
23
Properties=species:S:1:pos:R:3 energy=0.0021502150215021503 pbc="T T T"
C       -4.18948900       0.50797800       1.41252100
C       -3.54013800      -0.66197000       0.76518200
N       -3.94122200      -1.91511500       0.63167900
N       -3.04531100      -2.62961000      -0.01864500
C       -2.02253400      -1.81518000      -0.32105000
N       -2.33805500      -0.60359700       0.16722100
C       -1.52963400       0.56294700       0.07188900
C       -2.26370300       1.70533600       0.24627200
C       -1.55835000       2.90460400       0.17180800
C       -0.20043400       2.95797300      -0.06296100
Cl       0.60728200       4.53304500      -0.14003100
C        0.51756200       1.79182200      -0.23552300
C       -0.14553000       0.59227900      -0.16846000
C        0.75385100      -0.53732000      -0.37226100
C        2.15723500      -0.26106800      -0.13011200
C        2.59083500       0.98889700       0.26517000
C        3.94213800       1.15883700       0.47190100
C        4.84510000       0.11947400       0.29279400
C        4.35915200      -1.10930300      -0.10285400
C        3.03221900      -1.32938800      -0.32049900
Cl       2.43298700      -2.91165400      -0.82683000
N        0.39501900      -1.71293300      -0.73825600
C       -0.85898000      -2.33605300      -1.05895400
25
Properties=species:S:1:pos:R:3 energy=0.004567123379004566 pbc="T T T"
C        5.31115600      -0.07125400       1.37320100
N        4.39210900      -0.19655100       0.25011700
C        3.34647300      -1.13596300       0.68073400
C        2.51156700      -0.35324500       1.69425300
C        2.97330900       1.08199000       1.54097700
C        3.64106200       1.03437200       0.16588700
C        2.63463100       1.05471600      -0.93590600
C        1.76142900      -0.17571300      -0.97347500
O        0.60303000      -0.03484600      -0.18633300
C       -0.63945100      -0.09435900      -0.78985100
O       -0.71424600      -0.27544300      -2.04648100
C       -1.87296800       0.04364500      -0.03406000
C       -1.99601400       0.24441200       1.32656500
N       -3.29015400       0.32291600       1.66392900
C       -4.01438700       0.17849800       0.55820900
C       -5.38054200       0.17891600       0.34766200
C       -5.85596800       0.00638800      -0.91238000
C       -5.01823700      -0.16971600      -1.99186200
C       -3.65693800      -0.17177600      -1.79332400
C       -3.15785600       0.00211600      -0.52021000
C        2.51541600      -1.41742200      -0.56188600
H        3.76291700      -2.05114400       1.10043900
H        4.35484500       1.85096900       0.02551400
H        1.45112100      -0.32149500      -2.02433900
H       -3.66230500       0.46998800       2.61655700
28
Properties=species:S:1:pos:R:3 energy=0.004733806714004733 pbc="T T T"
O        3.19851600      -1.37424100       1.32996400
C        3.41600600      -0.94518400       0.18024900
C        2.61014600      -1.39655300      -0.97382300
C        1.57749600      -2.38702700      -0.49271100
C        0.71417000      -1.65334400       0.52817600
N       -0.29799600      -2.56928400       1.02151900
C       -1.13192100      -1.90126400       1.99160100
C       -1.84134600      -0.69863900       1.35191600
C       -2.58455100      -1.23114200       0.17577200
N       -3.49400500      -0.30812000      -0.41901500
C       -4.07845300      -0.41075700      -1.61236500
O       -3.90484400      -1.45804100      -2.51425000
N       -4.88179100       0.67534600      -1.82211900
C       -4.80216300       1.47254800      -0.74652500
C       -5.36735200       2.67699600      -0.38081900
C       -5.07735700       3.26100900       0.83272000
C       -4.21351800       2.63930900       1.69498000
C       -3.64005800       1.42895200       1.33758000
C       -3.92394900       0.83393200       0.12242300
C       -1.67154300      -1.90122100      -0.81979200
C       -1.02704400      -3.07443200      -0.10873300
C        4.49055500       0.02296100      -0.02284500
C        5.25992300       0.46397800       1.03119700
C        6.25003500       1.36440700       0.80431800
C        6.48885200       1.83716100      -0.46601800
F        7.47228300       2.73310000      -0.69892200
C        5.72388900       1.40244400      -1.53198400
C        4.73602000       0.49710700      -1.27257100
15
Properties=species:S:1:pos:R:3 energy=0.00024169083575024166 pbc="T T T"
C        3.76779200       1.90459900       0.27824600
C        4.13829500       0.44233100       0.35591800
C        4.43301500       0.11177300       1.78820400
N        3.13424500      -0.42381000      -0.23039700
C        1.91926100      -0.26082700       0.53462400
C        0.78373800      -1.05930900       0.09554300
O        0.87638400      -2.39909300       0.08286200
C       -0.52602400      -0.44898100       0.03819900
C       -0.76743000       0.62239200      -0.80447300
C       -1.99677300       1.24000000      -0.89847800
C       -3.05597700       0.78832800      -0.12572000
O       -4.32045900       1.36149200      -0.16821100
C       -2.85360900      -0.27728200       0.72580900
O       -3.92728400      -0.73230700       1.50678500
C       -1.60517300      -0.86930700       0.79075600
13
Properties=species:S:1:pos:R:3 energy=0.002566923359002567 pbc="T T T"
C       -3.43705100      -0.05045400      -0.77120400
C       -2.45707800      -0.32156100       0.30405400
C       -2.26468600      -1.72931500       0.67735500
C       -1.19428000       0.43843600       0.02397300
C       -1.13472700       1.62240900      -0.63324400
C        0.13099700       2.20883900      -0.93006100
C        1.27951100       1.58170600      -0.58264200
C        1.19971500       0.38242300       0.05211500
C        2.29687500      -0.57135200       0.20006800
C        3.30807000      -0.50439800       1.19042800
C        2.36097600      -1.54021400      -0.98038500
C       -0.02001500      -0.15608100       0.36900100
O       -0.06830700      -1.36043800       1.08054100
27
Properties=species:S:1:pos:R:3 energy=0.004233756709004233 pbc="T T T"
C       -4.94663100       1.58245000       1.87331800
N       -4.11972200       1.23311000       0.74576200
C       -4.01441200       2.27359000      -0.23085400
C       -3.23424100       1.77864500      -1.42216400
N       -2.66078200       0.49909500      -1.11999000
C       -1.25677800       0.30814100      -1.17997000
O       -0.54597900       1.29353800      -1.53235600
O       -0.63931400      -0.86970300      -0.87980500
C        0.72057800      -1.17643800      -0.90412500
C        0.84122600      -2.60837300      -0.47874200
N        0.39258500      -3.74730500      -1.06929300
C        0.55194500      -4.93702800      -0.46774200
C        1.18285900      -4.95220600       0.75838200
N        1.63619900      -3.83600000       1.35862300
C        1.46977700      -2.63282600       0.73843800
C        1.89002000      -1.28172700       1.06661200
O        2.49882800      -0.87860600       2.10804100
N        1.50762700      -0.40733600       0.00048800
C        1.86681400       0.96555700      -0.15405900
C        2.64080600       1.32623800      -1.25683300
C        3.04338500       2.64992000      -1.46473600
C        2.66815800       3.61684900      -0.56231400
Cl       3.16682600       5.25826100      -0.81552300
C        1.90764900       3.23825800       0.51136500
N        1.52492400       1.94085200       0.69749200
C       -3.53078100      -0.59376600      -0.76565400
C       -4.56156800      -0.04318800       0.19993000
26
Properties=species:S:1:pos:R:3 energy=0.029069573624029066 pbc="T T T"
O        1.62746300      -0.29517500      -3.03009100
C        1.76378200      -0.04304200      -1.75199200
C        0.55537000       0.45983300      -1.13415400
C        0.63414200       1.76556000      -0.43071600
C        1.47610500       1.75631000       0.79897700
N        0.80136500       0.90206600       1.81186400
C       -0.33858000       1.71263300       2.22072400
C       -1.53379500       1.57197800       1.34485600
C       -2.00236600       0.12823600       1.50841700
O       -2.19709900      -0.14769000       2.87603300
C       -3.24765700      -0.06345600       0.72360900