33
Properties=species:S:1:pos:R:3 energy=0.007806479319006748 pbc="T T T"
C        4.25758500      -1.83021500       1.54336300
C        5.26181800      -0.75651200       1.18014200
C        4.56399500       0.60309300       1.30066200
O        4.15027900       0.70116500       2.63947000
C        5.52081100       1.65541500       0.93042700
O        6.15543900       2.25325400       1.83463400
O        5.66426200       1.92684100      -0.43011500
C        4.92936200       1.22863800      -1.41512300
C        3.58794000       0.87356900      -0.93070000
C        3.40274500       0.56603800       0.39929800
C        2.13139200       0.22853700       0.86326500
C        1.06390400       0.20356800      -0.00980700
N        1.25460200       0.50482000      -1.30400100
C        2.49560700       0.83799900      -1.77513000
O        2.64999100       1.11724200      -2.99564900
C        0.01391000       0.41860000      -2.03928600
C       -1.00283900       0.02257100      -1.05190700
C       -0.35322000      -0.10082900       0.15657900
N       -1.11883800      -0.46262600       1.21077500
C       -2.42871600      -0.69621200       1.13016800
C       -3.09943100      -1.05927200       2.27868100
C       -4.45181100      -1.30143900       2.19847700
F       -5.14476800      -1.66217900       3.31590400
C       -5.11280900      -1.17705300       0.97093000
C       -6.57341700      -1.45918400       0.98423400
C       -4.43396400      -0.81436500      -0.16849900
C       -3.08732200      -0.56974200      -0.10284600
C       -2.37146100      -0.20618400      -1.20986400
C       -3.04424700      -0.05560600      -2.51138100
N       -2.15606400      -0.47949900      -3.60822300
C       -4.29078900      -0.85031700      -2.63355500
C       -5.20673000      -0.71658000      -1.43438200
H       -3.22721900       1.05646300      -2.61977100
14
Properties=species:S:1:pos:R:3 energy=0.0011000841240800768 pbc="T T T"
C        0.16026500       1.84137300       0.16548100
N        0.73202800       0.72468900      -0.53541900
C        2.12875900       0.72712100      -0.85227500
C        2.96271300       0.11827100       0.21341700
N        2.32443100      -0.38012900       1.38074500
O        4.20124700       0.07725300       0.02121100
C       -0.08687800      -0.35915100      -0.90284200
O        0.43936100      -1.32903100      -1.51835300
N       -1.49030300      -0.37026100      -0.58890500
C       -2.13757200       0.71098800       0.11103500
C       -2.09534600       0.47699000       1.62553000
Cl      -2.91221900       1.85223100       2.40886900
N       -2.24797000      -1.47135500      -0.97903500
O       -1.97851700      -2.61898800      -0.54945800
22
Properties=species:S:1:pos:R:3 energy=0.003923829469312359 pbc="T T T"
C        3.57728400       2.21358800      -0.60281900
C        4.16973700       0.84897300      -0.34491800
N        5.27879700       0.34914400      -0.89283400
C        5.46043300      -0.88709100      -0.40349000
C        4.43149800      -1.13571200       0.46218300
N        3.65360700      -0.05121400       0.47832700
C        2.42259600       0.15896700       1.25935700
C        1.28214500      -0.31494200       0.42338000
C        1.13840900       0.40316600      -0.88327100
C       -0.00557200       1.35512000      -0.94169100
C       -1.29332100       0.76944100      -0.50756500
C       -1.25232700      -0.13781200       0.54249600
C       -2.53413200      -0.57530000       0.80745900
C       -3.07483000      -1.45761400       1.72099500
C       -4.44557700      -1.69484900       1.73937200
C       -5.24095400      -1.03611700       0.83495800
C       -4.69157000      -0.15639800      -0.07398600
C       -3.33452000       0.08959600      -0.10496800
N       -2.56131500       0.88139300      -0.87136800
C       -3.02865600       1.73778200      -1.94205100
C        0.01575100      -0.46953600       1.15882700
O        0.03251900      -0.89058500       2.32548400
30
Properties=species:S:1:pos:R:3 energy=0.0016883644043368025 pbc="T T T"
C        2.61192100      -0.26106700      -2.24279700
C        2.34759600       0.51388900      -0.99608600
C        1.60187300      -0.32424100       0.05316500
N        0.19949200      -0.10860000      -0.03632900
C       -0.77823300      -1.09971000      -0.21323400
O       -0.36613800      -2.28363800      -0.29945300
C       -2.20532200      -0.83196200      -0.29943700
N       -2.70372800       0.32542500      -0.22227700
O       -1.89882400       1.42941600      -0.04721800
C       -2.11675500       2.38436700       0.96587000
C       -2.05242100       1.76316600       2.34634300
C       -3.52331600       2.98589400       0.84471100
C       -1.14141600       3.47306500       0.80533300
O       -1.14958500       4.43529800       1.59879100
O       -0.22117300       3.43543500      -0.21471900
C       -3.12263900      -2.00421300      -0.49414200
C       -4.56919300      -1.71745900      -0.58909700
S       -5.24767000      -3.44277300      -0.81963100
C       -3.66724000      -4.20170200      -0.76062800
N       -3.40107000      -5.65471500      -0.88381800
N       -2.80085300      -3.22237300      -0.58861800
C        2.38968500       0.48193700       0.98558400
O        2.35505300       0.98811700       2.13674600
N        3.40777400       0.52479100      -0.00855900
S        5.12732100       0.56990700      -0.12748900
O        5.56348800       1.79586600      -0.90389100
O        5.61769900      -0.63017900      -0.92718500
O        5.86313300       0.51725700       1.35979800
H        1.92128200       1.52861000      -1.13305700
H        1.95925800      -1.36980600      -0.01776700
22
Properties=species:S:1:pos:R:3 energy=0.011689129168701136 pbc="T T T"
C        4.19096900      -1.44927500       1.41521800
N        3.74533800      -1.95709100       0.13568900
C        3.57336900      -0.88219100      -0.80308400
C        2.65722500      -2.87681700       0.22352600
C        1.35508800      -2.19652400       0.68494300
C        1.07846400      -1.15580900      -0.33761000
N       -0.09375300      -0.35961600      -0.15193400
C       -1.37070300      -1.01219200      -0.11811900
C       -1.15964500      -2.38931000      -0.13106600
C       -2.25645600      -3.22075300      -0.10826500
C       -3.51668300      -2.66695100      -0.07377300
C       -3.76048500      -1.30832000      -0.06050300
C       -2.65046500      -0.46791800      -0.08327400
C       -3.01007800       0.95220300      -0.05441900
C       -2.20932500       1.85917400      -0.92982900
C       -0.85375600       2.06426300      -0.34949400
C       -0.52218700       3.38084400      -0.14368500
C        0.73913200       3.66367300       0.40017900
O        1.07798800       4.99449800       0.61001000
C        1.62575400       2.65647700       0.72163900
C        1.29902100       1.32158600       0.51667000
C        0.06118600       1.05004900      -0.01626000
14
Properties=species:S:1:pos:R:3 energy=0.005688670310082536 pbc="T T T"
C       -2.24307700       2.14573600       0.38060600
N       -1.29959500       1.05307100       0.20761500
C        0.00283500       1.28069400       0.08663200
O        0.44225700       2.45593700       0.12036600
C        0.88247700       0.21736200      -0.07768200
C        0.36813800      -1.05258100      -0.10999600
N        1.37647500      -1.92395000      -0.27477700
C        2.51346300      -1.18697300      -0.34386900
N        2.22658800       0.12233400      -0.22494400
C        3.13325200       1.25069600      -0.24333600
N       -0.96676600      -1.22651100       0.01802900
C       -1.55276100      -2.56201900      -0.01124500
C       -1.81835000      -0.19011500       0.17757800
O       -3.06493600      -0.38368100       0.29502300
45
Properties=species:S:1:pos:R:3 energy=0.05639843046821228 pbc="T T T"
C        0.97755200       4.01049300       0.13240700
N        1.83937000       3.31456300       1.04972600
C        2.42824000       4.02077000       2.15389000
C        2.11203500       1.94202800       0.86396800
C        3.37100000       1.46255100       0.66573600
C        3.65405400       0.13104600       0.48167300
N        4.94539800      -0.38014800       0.28304300
C        6.07280600       0.49696800       0.19047700
O        5.79688600       1.71983900       0.29644100
C        7.40959200      -0.07858200      -0.01411200
N        8.50207400       0.78432700      -0.14340600
C        8.63763900       1.55065300      -1.32789500
C        8.79639900       0.64008300      -2.54287800
C        9.95674200       2.32306600      -1.25261500
C        7.53177200       2.53230700      -1.50422300
C        2.58140300      -0.72823100       0.50537000
O        2.75973700      -2.10904400       0.32736600
C        1.26412100      -0.29144400       0.70467300
C        1.02152700       1.04486800       0.88560400
C       -0.30351800       1.58886300       1.10216300
C       -1.46052100       0.68048200       1.22911500
C       -2.59012300       1.16802100       0.33242800
C       -3.71586400       0.21811600       0.17523100
C       -3.81439800      -0.17111800      -1.28464200
N       -4.17415500       0.99519800      -2.07450100
C       -3.15714200       2.02633500      -1.99297700
C       -4.50923700       0.65602600      -3.42147400
C       -4.82884100      -1.21224600      -1.53705800
O       -5.46485400      -1.30405100      -2.79056000
C       -5.19373700      -2.09392900      -0.63604100
C       -6.21110500      -3.13482700      -0.89835600
N       -6.57677700      -4.06259100       0.09668200
O       -6.71959200      -3.13793200      -2.04634100
C       -4.56105200      -2.03311700       0.67177700
O       -4.90518100      -2.92187000       1.52378400
C       -3.57323200      -1.01975700       1.03481900
O       -3.77533700      -0.69430400       2.38263500
C       -2.21275200      -1.56893700       0.81428200
O       -1.95433200      -2.89770000       0.51379700
C       -1.19284500      -0.73556300       0.91041700
C        0.16986900      -1.23868300       0.70905500
O        0.37748600      -2.46086100       0.54516000
H       -1.81987500       0.78048300       2.30537600
H       -4.67188600       0.70233300       0.43582300
H       -2.81934700      -0.51448300      -1.66835200
33
Properties=species:S:1:pos:R:3 energy=0.0009588968568184626 pbc="T T T"
C       -0.66816100       0.14910200       2.69693100
C       -1.93548000       0.30309100       1.90395300
O       -3.12282400       0.53179800       2.40523600
N       -4.00903300       0.61302600       1.46084000
C       -3.39880800       0.43163600       0.26231500
C       -4.02554700       0.44483600      -1.05814900
C       -4.50684100      -0.73312400      -1.58220400
Cl      -4.38267300      -2.23913700      -0.70052800
C       -5.10642300      -0.74531900      -2.83525900
C       -5.22686000       0.40869600      -3.56392100
C       -4.75299500       1.59525500      -3.05899700
C       -4.15587800       1.59256200      -1.80497100
Cl      -3.54054600       3.08368000      -1.12876300
C       -2.07820700       0.23361200       0.53520000
C       -0.99666300      -0.00905600      -0.42720300
O       -1.28430000      -0.04460700      -1.64723100
N        0.35100100      -0.20519300      -0.05966100
C        1.42111900      -0.44374400      -0.98903700
C        2.19587100      -1.65651300      -0.52874600
O        2.12512800      -2.83728000      -0.93076300
N        2.83500600      -0.78735600       0.37212100
C        3.44224900      -0.30970500       1.53463900
C        4.55184300      -1.25716100       1.92879400
O        4.79362500      -2.27156700       1.24682700
O        5.32705900      -1.02618600       3.05277100
C        3.96716200       1.06045600       1.40635000
C        5.39438800       1.07628500       0.85523300
C        3.87758900       1.85511200       2.68653300
S        2.81289700       1.75171400       0.14767900
C        2.72413000       0.18294500      -0.73486700
H        1.16044800      -0.47245000      -2.04610800
H        2.77543500      -0.30373000       2.45044700
H        3.43629100       0.02832200      -1.54954500
21
Properties=species:S:1:pos:R:3 energy=0.0014530522922341122 pbc="T T T"
C       -4.30693500      -2.37651500      -1.37016100
C       -3.06990800      -1.60526000      -1.15182700
O       -2.42744900      -1.20220500      -2.16806700
N       -2.60044700      -1.31580800       0.15859300
C       -1.38758600      -0.55975000       0.23929400
C       -1.47718800       0.80243300       0.27664800
I       -3.34327700       1.77557500       0.22026100
C       -0.29512200       1.53216300       0.35486800
C       -0.37833600       2.99317100       0.39693000
O        0.66520100       3.69428400       0.46764800
O       -1.60887100       3.63740300       0.35942600
C        0.94579700       0.93528400       0.39564300
I        2.68165200       2.15116100       0.51838400
C        1.03311600      -0.43946200       0.35778100
N        2.29399200      -1.09039200       0.40048500
C        2.56730000      -1.98062900       1.50956200
C        3.29946600      -0.91645800      -0.58795200
C        3.17210900      -0.05667200      -1.78054800
O        4.41560800      -1.53158200      -0.47677000
C       -0.14902000      -1.17426400       0.27920500
I       -0.03010300      -3.27247700       0.22075600
29
Properties=species:S:1:pos:R:3 energy=0.001335396236182767 pbc="T T T"
O       -2.78493900      -0.42772100       2.54871700
C       -3.11714800      -0.55880400       1.31278200
C       -3.72233200       0.46661300       0.51931800
C       -4.02898800       1.78328700       0.89800900
C       -4.57959500       2.65170300      -0.00419400
C       -4.85694100       2.29397900      -1.29822300
C       -4.55701300       1.00591300      -1.66597800
C       -4.00400200       0.13256900      -0.75998100
S       -3.56935200      -1.55154200      -0.94921400
O       -2.57918700      -1.75425600      -2.02775100
O       -4.79157200      -2.41375300      -1.11901100
N       -2.89261900      -1.78119200       0.64492500
C       -2.29386100      -2.99542300       1.06003000
C       -0.87417000      -3.11201500       0.67225400
C        0.05906200      -2.10629900       1.18638500
C       -0.16384100      -0.69165600       0.79289400
N       -0.09276600      -0.52214400      -0.62778700
C        1.20143900      -0.71577200      -1.20204200
C        2.17239400       0.37449900      -0.78970600
C        2.34175900       0.39582000       0.70886200
C        3.28911300       1.53319700       1.04671700
C        4.59114600       1.28967400       0.33122100
C        5.72801500       1.79257200       0.92002500
C        6.93194900       1.57495400       0.27830700
C        6.98970700       0.88043800      -0.90641700
C        5.82034400       0.39586700      -1.45720900
C        4.58567400       0.58674300      -0.85339100
O        3.41343500       0.10663500      -1.39615200
H        1.78428900       1.36611700      -1.15035200
32
Properties=species:S:1:pos:R:3 energy=0.010983192832393067 pbc="T T T"
O       -3.15437500       3.27271200       1.03391600
C       -2.16049100       2.47010300       0.96034500
O       -0.95933100       2.94998400       1.37710000
C       -2.39288100       1.13841900       0.44908400
C       -3.26641100       0.32547500       1.44952800
C       -3.14240600      -1.06098100       0.87460400
C       -4.45440300      -1.39684900       0.19194300
C       -4.78913800      -0.45209700      -0.90886800
C       -6.14401200       0.19751500      -0.75123800
C       -7.23096800      -0.77193700      -0.42412900
C       -6.86280300      -1.80074800       0.59141000
C       -5.51832900      -1.54356700       1.23415900
C       -1.97397800      -1.03374300      -0.07698100
N       -1.31575500       0.24846000       0.26648200
C        0.07253700       0.34306800       0.33303300
O        0.76500200       1.35949000       0.60105700
C        0.94719700      -0.88079500       0.06400900
P        1.31607600      -0.92421400      -1.70048600
O        0.89120700      -2.26421700      -2.26582400
O        0.49577500       0.27578700      -2.54992900
C        3.08953700      -0.74234600      -2.01748000
C        3.91526200      -1.53373300      -1.02469800
C        3.59796700      -1.01208400       0.36067100
C        3.92271100       0.44381200       0.50968200
C        5.36643200       0.64648500       0.25904600
C        6.25192400       0.56903100       1.31202100
C        7.62117100       0.75288900       1.12458600
C        8.03053500       1.01477000      -0.16875300
C        7.17267200       1.09753100      -1.23504600
C        5.80566000       0.90881300      -1.01703000
H       -3.00732800       1.19037000      -0.50690300
H       -2.88905300      -1.81489400       1.65468900
32
Properties=species:S:1:pos:R:3 energy=0.008747727767417508 pbc="T T T"
O        2.86689000       1.55590500       1.72250900
C        3.90912200       1.12601000       1.17445100
N        5.08074700       0.86482900       1.82063500
C        5.92894500       0.42583400       0.86209500
C        7.25284900       0.01517300       0.93154000
C        7.93045800      -0.39991100      -0.20335900
C        7.29722800      -0.41107600      -1.42353900
C        5.96675000       0.00829700      -1.45566000
C        5.29205500       0.41615000      -0.35558000
N        4.03711000       0.85807400      -0.12156000
C        3.04439500       0.99924800      -1.16313800
C        2.22831000      -0.21908400      -1.40344700
C        1.41786000      -0.70582200      -0.23990900
N        0.45263200       0.29420600       0.20378700
C       -0.52705700       0.40773900      -0.86223300
C       -1.06506400      -0.98958000      -1.09915600
C       -1.99227200      -1.31449000       0.07863200
N       -3.32572600      -0.92876200      -0.37887600
C       -3.77279900      -0.94266500      -1.65712700
O       -3.05214400      -1.30829100      -2.64272200
N       -5.04787300      -0.52313200      -1.70126800
C       -5.45048200      -0.22854700      -0.44587300
C       -6.64869400       0.23798600       0.07842600
C       -6.78444800       0.45565500       1.43213300
Cl      -8.29806200       1.04771500       2.12285200
C       -5.69158700       0.19291900       2.23262200
C       -4.49886300      -0.27025600       1.71922300
C       -4.35699100      -0.49162600       0.35147300
C       -1.61624500      -0.50380900       1.29482800
C       -0.15330600      -0.23249400       1.41091000
H        5.22314300       0.99675100       2.83767900
H       -5.64688000      -0.43294600      -2.55223200
30
Properties=species:S:1:pos:R:3 energy=0.006041638478236571 pbc="T T T"
C       -4.98695600       2.04627700       1.41212500
N       -3.92608800       1.19401600       0.92345700
C       -2.75031900       2.02592400       0.62810400
C       -1.52052200       1.10845600       0.50283600
C       -2.03293000      -0.18416400       0.01363700
C       -1.08345200      -1.16984100      -0.47860100
C       -1.60151200      -2.37846000      -0.98821800
O       -2.99239000      -2.58054300      -0.92014200
C       -0.83048100      -3.36075700      -1.53927800
C        0.52323300      -3.18082700      -1.60904700
O        1.38878500      -4.12201800      -2.15358300
C        1.06693700      -2.02053500      -1.12213400
C        2.44069100      -1.82845700      -1.19024100
O        3.14858300      -2.73703100      -1.70401700
C        2.91806800      -0.67162600      -0.69591600
C        2.10260800       0.33046100      -0.12335400
C        2.83240700       1.49734700       0.36158300
C        4.10129800       1.73927800      -0.17926400
C        4.91290600       2.77014900       0.22418900
C        4.49090800       3.62419000       1.20349000
C        3.24644100       3.40017600       1.74738500
C        2.42565100       2.34450100       1.32998200
Cl       0.93533400       2.17623500       2.20592400
O        0.82118600       0.11527900      -0.07881600
C        0.28257600      -1.00476500      -0.55209900
C       -3.08769900       0.17858600      -1.04859900
O       -2.71595200       1.44086300      -1.58307700
C       -4.35969100       0.45754700      -0.27580100
H       -2.57581400      -0.66530600       0.88444800
H       -3.17380600      -0.54495600      -1.84432600
63
Properties=species:S:1:pos:R:3 energy=0.00486507791772312 pbc="T T T"
N        8.66668000       0.13826700      -1.32793900
C        9.15666200      -0.04864900      -0.14375300
N        9.17173800       1.05335900       0.76867000
N        9.64331600      -1.33306600       0.13579600
C        8.84283400      -2.51631300       0.01888500
C        7.76803300      -2.65601400       1.02675800
C        6.76413200      -1.54600000       0.94766800
C        6.03011900      -1.48283200      -0.37488200
C        5.05769600      -0.31890600      -0.30579900
N        5.82155100       0.87469500      -0.08103100
C        5.26905500       2.18044100       0.02643600
O        5.94976200       3.19503300       0.35442800
C        3.81536400       2.32240900      -0.26979400
C        3.41083300       3.79072900      -0.16462100
S        1.67522800       3.87832400      -0.68728600
S        1.19856400       5.88684100      -1.24838800
C       -0.53545900       6.24276600      -0.86096800
C       -0.99038400       5.20255800       0.15953800
C       -0.40422900       5.63651600       1.45763800
N        0.99819800       5.75114500       1.65718000
O       -1.17145800       5.91132200       2.41119600
N       -2.43275000       5.19288200       0.27277400
C       -3.13530400       4.00819900       0.53227300
O       -3.98996000       3.97168100       1.44895500
C       -2.86753000       2.79791900      -0.27812400
C       -3.32286800       3.13810600      -1.70586400
C       -4.84226800       3.06945900      -1.59534200
C       -5.13477200       2.45901200      -0.24309700
N       -3.86674500       1.75860500       0.02908600
C       -3.53178400       0.47232400       0.47200400
O       -4.11436100       0.07362300       1.54098500
C       -2.57866000      -0.46707100      -0.16520900
C       -3.27567700      -1.31524500      -1.16790400
C       -4.37394500      -2.14562900      -0.69646300
C       -4.32509000      -3.50083200      -0.37962400
N       -5.49165600      -3.96284100       0.03483300
C       -6.34642000      -2.93994000       0.00698500
C       -7.68240900      -2.93731600       0.34453800
C       -8.37097100      -1.75437800       0.22686600
C       -7.75190200      -0.59865400      -0.21581300
C       -6.42213100      -0.63914700      -0.54239400
C       -5.69724100      -1.80232400      -0.43839100
N       -1.90131400      -1.17695700       0.87174200
C       -0.80322600      -2.02028900       0.82168500
O        0.21354700      -1.78702400       1.53284500
C       -0.78542700      -3.20477700      -0.05093900
C       -1.28012600      -4.39294300       0.79001600
C       -1.26284200      -5.58969800      -0.07784500
O       -0.88564300      -5.51300900      -1.27147100
O       -1.65367100      -6.84866400       0.36257400
N        0.49282100      -3.59083300      -0.54941000
C        1.77020900      -3.30749500      -0.06856500
O        2.54315300      -4.14005100       0.51856100
C        2.31310100      -1.93509500      -0.23360300
N        3.27859600      -1.66877100       0.79705600
C        4.16240200      -0.57301500       0.85190700
O        4.23768100       0.21541700       1.84259800
H        4.41141900      -0.27137700      -1.20744200
H       -0.56559100       4.23655800      -0.15783400
H       -1.84557900       2.42844100      -0.23432900
H       -1.84936100       0.17915200      -0.75723700
H       -5.64805300      -4.96288300       0.31973400
H       -1.52589200      -3.11774400      -0.89146400
13
Properties=species:S:1:pos:R:3 energy=0.00022942930930012296 pbc="T T T"
C        3.00048600       0.67202800       1.99041500
C        2.05422400       0.10332700       0.99619100
O        2.44401400      -0.24404100      -0.13104000
O        0.70685200      -0.06105400       1.28575100
C       -0.19830500      -0.58289100       0.39324500
C       -0.42742000      -1.94014100       0.36233600
C       -1.32483100      -2.51426100      -0.51349800
C       -1.98443300      -1.66940700      -1.35887400
C       -1.76465100      -0.31108400      -1.33819600
C       -0.86586700       0.23959100      -0.45715400
C       -0.63422700       1.66722300      -0.43475400
O       -1.26325200       2.39921300      -1.22920500
O        0.25741000       2.24149600       0.43478300
13
Properties=species:S:1:pos:R:3 energy=0.01521881085024149 pbc="T T T"
C        4.88050500       0.33063900      -0.15283400
C        3.39817700       0.34051700      -0.05819800
O        2.78322000       1.06315500       0.76814800
N        2.64585000      -0.49325900      -0.92896900
C        1.28252500      -0.51248500      -0.87294800
N        0.27996300      -1.15999600      -1.52552800
N       -0.90919800      -0.95389700      -1.23251900
C       -1.32669200      -0.16334200      -0.34294000
S       -2.92817100       0.22407700       0.17200200
N       -3.40925600      -0.84916100       1.44648400
O       -3.04843300       1.64828500       0.63197500
O       -3.85643000       0.04623800      -0.99957600
S        0.20793700       0.47923000       0.27414100
19
Properties=species:S:1:pos:R:3 energy=0.02580785589486255 pbc="T T T"
C       -3.93890600      -1.74098500      -1.67210900
N       -2.70989400      -2.49497900      -1.57156200
C       -2.70397700      -3.15998100      -0.27928500
C       -1.54857500      -1.62516200      -1.61428500
C       -1.53518000      -0.81319400      -0.35893500
C       -0.43091800       0.13217700      -0.21869900
C        0.92878100      -0.34352400      -0.21599900
C        1.43881100      -0.94632800       0.91258900
C        2.71703000      -1.40101600       0.93958000
C        3.53780900      -1.27559300      -0.14922300
Cl       5.20013000      -1.87962000      -0.07436300
C        3.07719000      -0.68008400      -1.30423100
C        1.76828400      -0.22748100      -1.29828800
C       -0.70139100       1.48717000       0.20865600
C       -0.88652900       1.69133600       1.56269200
C       -1.14889500       2.92849600       2.09729300
C       -1.23288800       4.01526000       1.26003200
C       -1.04309700       3.77469000      -0.08263200
N       -0.78778500       2.55881800      -0.58679300
24
Properties=species:S:1:pos:R:3 energy=0.003688517357209669 pbc="T T T"
C        3.11246500      -0.22256600      -0.04920000
C        2.23874900      -0.19731100       1.17250200
C        2.72801100      -1.37643000       2.03659400
C        2.51654800       1.04720600       2.00446200
C        0.79185800      -0.39744900       0.92648000
O        0.14804700      -0.35426100       2.18246900
C        0.60677600      -1.77039700       0.27069700
C       -0.54980500      -1.58371800      -0.74067100
O       -1.47378600      -2.63356900      -0.43868700
C       -2.00233700      -2.35131300       0.81446400
O       -2.60462600      -3.21468100       1.49959500
C       -1.73077000      -0.92762100       1.15397200
C       -1.20108500      -0.40816500      -0.14764200
C       -2.02481200       0.49363200      -0.85803200
O       -2.87477600       0.20903900      -1.76302500
O       -1.72003500       1.75972300      -0.36797600
C       -0.58514600       1.69932700       0.50195700
O        0.29977100       2.71379600       0.03871300
C        0.91185600       2.29711100      -1.11788600
O        1.58140900       2.98129500      -1.90092700
C        0.63424300       0.83720500      -1.29070900
O       -0.35536500       0.66877100      -2.29112500
C        0.06604600       0.45850800       0.02021700
H        1.48676300       0.27186900      -1.65624200
36
Properties=species:S:1:pos:R:3 energy=0.002394300740644873 pbc="T T T"
C        7.51197100      -0.18350300       1.26251700
C        6.38303000       0.69641600       0.72038200
C        5.86139200       0.07584000      -0.55348400
C        4.74423900       0.94285200      -1.09254500
C        3.67102200       0.97008200       0.00719800
C        3.09510300      -0.41801500      -0.17596700
C        1.84086100      -0.60987600       0.58900800
O        1.80058900      -0.59210000       1.84269700
N        0.61866200      -0.82513000      -0.10163800
C       -0.64541200      -1.02006200       0.59726700
C       -1.09257600      -2.43856200       0.21003100
C       -0.07335500      -3.45793900       0.63839100
Cl      -1.28692000      -2.52886500      -1.55053700
C       -1.71688300      -0.07193000       0.14192100
O       -2.86874900      -0.33235400       0.85915500
C       -3.96012900       0.38737300       0.44449100
S       -5.11471500      -0.77694400      -0.35496300
C       -5.71079200      -1.90481700       0.94421300
C       -3.64026700       1.54404600      -0.44385900
O       -3.50601100       1.16777200      -1.79675500
C       -2.44082700       2.28615200       0.05645100
O       -2.80510500       2.87656900       1.28226300
C       -1.29791600       1.34958200       0.34400400
O       -0.81736700       1.50877300       1.66358900
N        2.87207800      -0.45198700      -1.60434400
C        1.74538100       0.44406800      -1.86898500
C        4.03842300       0.17471300      -2.18319900
H        5.06134200       1.94509700      -1.37488000
H        3.88993200      -1.13161400       0.13999600
H       -0.54803000      -0.95784900       1.68831500
H       -2.09593600      -2.63958800       0.67583200
H       -1.87956500      -0.26583100      -0.93746300
H       -4.48568300       0.78740000       1.34314900
H       -4.55075700       2.20535900      -0.43807600
H       -2.13963700       3.11637700      -0.61116000
H       -0.45739400       1.57729900      -0.36301500
32
Properties=species:S:1:pos:R:3 energy=0.0007471159559260415 pbc="T T T"
C        6.02165800       2.34602800       1.79703500
C        4.86716500       3.23794800       1.33376200
O        3.70408700       2.47002000       1.10857900