32
Properties=species:S:1:pos:R:3 energy=0.9932517730102834 pbc="T T T"
C        8.00502700       1.65876000       2.23078300
C        6.89675600       1.52176900       1.24924300
C        6.84524600       0.51917500       0.30615300
C        5.78192500       0.47412700      -0.55775900
C        4.74714700       1.40647100      -0.51906900
C        4.81637100       2.38770400       0.41849400
C        5.88496700       2.46831400       1.31852700
S        3.47018300       1.21484600      -1.68043300
O        2.91006700       2.59417400      -1.95906600
O        3.98047900       0.68426800      -2.99001400
N        2.19340500       0.23582800      -1.13138300
C        2.32609800      -1.12981300      -0.76857900
C        3.52795600      -1.80403900      -0.82888600
C        3.60122500      -3.13244900      -0.46420200
C        2.48449300      -3.83258700      -0.02855900
C        1.30275200      -3.16427400       0.02920100
C        1.21082000      -1.81906100      -0.33636000
C       -0.05704300      -1.10732300      -0.27288100
O       -0.15313300       0.09667600      -0.59717600
N       -1.22478300      -1.77910200       0.16541700
C       -2.50258200      -1.15032300       0.25473400
C       -3.55315600      -1.91219300       0.69426100
N       -4.78568300      -1.36781500       0.79820900
C       -5.03670100      -0.08687800       0.48443100
C       -3.98064800       0.67838100       0.04277700
C       -2.70615700       0.16694600      -0.07944600
C       -6.36771300       0.48747500       0.60057600
C       -6.61819400       1.80229900       0.27693500
C       -7.90627600       2.33770000       0.39519500
C       -8.95539600       1.56542400       0.83747900
C       -8.70527500       0.25205200       1.16078200
C       -7.43217800      -0.26653100       1.04086600
34
Properties=species:S:1:pos:R:3 energy=0.9932517730102834 pbc="T T T"
C        6.52989600      -4.08650000       1.76008300
C        5.83514500      -2.78055000       2.04538700
C        5.26095500      -2.73439700       3.44731600
O        4.87363300      -2.45172100       1.08720300
C        4.14588100      -1.28045000       1.20575200
C        3.18290000      -0.95342400       0.24410200
C        2.49644700       0.22647600       0.42460900
C        2.73685700       1.04719000       1.49007700
C        3.68859000       0.72980200       2.44580000
C        4.38069600      -0.44924800       2.27347800
C        2.00472300       2.33639900       1.71051000
C        0.79415500       2.01704900       2.53585600
N       -0.10220600       1.08338700       1.91915500
C       -0.75460200       1.27075900       0.68618800
O       -0.55146400       2.33205100       0.05769600
C       -1.66440300       0.26749100       0.11039600
C       -1.89573200      -0.97666100       0.71687300
C       -2.79107100      -1.63326900      -0.12660100
C       -3.09805800      -0.84971600      -1.18888600
N       -2.38999400       0.30735600      -1.00987100
C       -2.40816300       1.45571700      -1.93181400
C       -3.54152200       2.34463300      -1.56443700
C       -3.45762300       3.39959500      -0.69636800
C       -4.52749400       4.20743900      -0.37459700
C       -5.78250600       3.97308500      -0.94128100
C       -5.87819700       2.91355100      -1.81653700
C       -4.80283700       2.11319600      -2.13068400
C       -3.96372500      -1.39264800      -2.07494900
C       -4.47682800      -2.50948200      -1.99080000
S       -3.70630200      -3.11490700      -0.36776000
O        3.00157300      -1.82641500      -0.79188500
C        2.08954100      -1.66153500      -1.83553200
C        2.21162300      -2.86563100      -2.77790400
C        2.56011200      -0.45862200      -2.65541900
33
Properties=species:S:1:pos:R:3 energy=0.9932517730102834 pbc="T T T"
C       -6.00001100       0.01575400      -4.44287400
O       -5.29092100      -0.94856200      -3.72585500
C       -4.95133500      -0.80125800      -2.38336900
C       -5.35055800       0.36784600      -1.75969600
C       -5.02386400       0.53204400      -0.43147500
C       -4.32681400      -0.43784200       0.23695600
C       -3.93558500      -1.59637000      -0.39521700
C       -4.24967900      -1.79746800      -1.74314700
O       -3.85973700      -2.96187800      -2.38890600
C       -3.18757300      -2.63973800       0.34963100
N       -2.96732500      -2.21936200       1.71013700
C       -2.17185600      -1.08677200       1.97103500
C       -1.55610600      -0.42376800       0.93664900
C       -0.76819900       0.69381400       1.16673300
C       -0.58029700       1.17184500       2.44252800
C       -1.19137200       0.51402500       3.47099700
C       -1.97797100      -0.59865600       3.25872600
S        0.39870200       2.56360100       2.73714700
O        0.34778700       3.43184200       1.48771900
O       -0.17623900       3.41260700       3.84286300
N        2.04976500       2.19649700       3.01290000
C        2.78989300       1.55898300       1.97977200
C        3.62901600       0.49120400       2.24337100
C        4.34254600      -0.11753100       1.22492600
C        4.24734100       0.30704700      -0.06482200
C        3.41230900       1.37208000      -0.33732300
C        2.68342400       1.99959100       0.67945200
C        4.96511900      -0.28064200      -1.19100100
C        4.40188100      -0.27595900      -2.44746000
C        5.00482200      -0.80485600      -3.56095500
C        6.24469600      -1.37878800      -3.43978800
C        6.83346300      -1.39878200      -2.19723000
C        6.21467700      -0.86054500      -1.07604100
56
Properties=species:S:1:pos:R:3 energy=0.9932517730102834 pbc="T T T"
C        1.18912000       0.21588800       1.17844000
N        0.66290600      -0.95609900       0.59076600
C        0.57173100      -1.05682400      -0.79767000
C       -0.33975700       0.07028200      -1.30312200
C       -1.70012400      -0.01964600      -0.73210500
C       -1.99885900       0.58159300       0.46287600
C       -3.25714100       0.52688700       1.01947100
C       -4.29149900      -0.14174800       0.39840900
C       -3.99491500      -0.75645100      -0.81879000
C       -2.73351900      -0.69149100      -1.35962200
O       -5.55869600      -0.22062300       0.92054300
S       -6.71797500       0.94265200       0.53669800
O       -7.28805400       1.58313100       1.77656000
C       -6.02413300       2.12075500      -0.53816900
C       -4.72258300       2.02862500      -0.94368000
C       -4.18698900       2.96320000      -1.78899900
C       -4.98599800       4.01148800      -2.23248400
C       -6.29912600       4.11097200      -1.82855400
C       -6.80367200       3.15575300      -0.97950000
C       -8.12097700       3.27553200      -0.58763400
C       -8.90015700       4.32665600      -1.04074600
N       -8.38749400       5.25390900      -1.87332100
C       -7.10395900       5.16118200      -2.27164800
O       -7.94403100       0.14126100      -0.32133400
C        1.75433700      -1.03619600      -1.63616900
O        1.54438300      -1.20413100      -2.90023900
N        3.08740100      -0.85875700      -1.24766600
C        4.14740500      -0.89544700      -2.30098500
C        4.87511000       0.44297300      -2.08791100
N        5.62277500       0.26520600      -0.87450300
C        5.02484900      -0.40483300       0.23701200
C        3.56900700      -0.62787600       0.08758600
C        6.94754600       0.73783200      -0.78842600
O        7.62425900       0.61457200       0.25583100
O        7.53878400       1.35335500      -1.86379400
C        8.81752300       1.87588100      -1.96202100
C        9.04833000       2.96626500      -0.99407400
C        8.87959000       4.30169600      -1.32537900
C        9.10419500       5.32346800      -0.41288400
C        9.51145600       4.96007600       0.86918500
C        9.68911900       3.63868100       1.23356300
C        9.45130100       2.64545300       0.28174500
S        0.72489700      -2.36050900       1.51994500
O        2.02583900      -3.11978800       1.35812200
C       -0.59074600      -3.46744900       1.27300300
C       -1.63112300      -3.30859800       0.42172800
C       -2.62178700      -4.26368100       0.31165900
C       -2.58674800      -5.39972000       1.05591100
C       -1.54753700      -5.59788100       1.93110800
C       -0.56964300      -4.63548600       2.02756400
C        0.45219700      -4.89219800       2.92612100
C        0.48387500      -6.05148100       3.68170900
N       -0.50697000      -6.97013500       3.54820100
C       -1.51986500      -6.76137800       2.68611200
O        0.64498100      -1.89785600       3.15899500
H       -0.05883800      -1.99894200      -1.01415300
33
Properties=species:S:1:pos:R:3 energy=0.9895411936137477 pbc="T T T"
C       -2.76061800      -1.04739600      -1.92951600
C       -2.76817000      -0.71605000      -0.49234500
C       -1.61503600      -0.52022900       0.26580100
C       -2.01636200      -0.21726600       1.51868700
N       -3.39810500      -0.23374200       1.48827400
N       -3.83647700      -0.52719800       0.29179000
C       -5.22084000      -0.51363500      -0.11797700
C       -5.66678900      -1.08681600      -1.28202500
C       -7.01498400      -0.96778000      -1.69408700
C       -7.89112100      -0.27709500      -0.93116100
C       -7.49247000       0.31112200       0.24297900
C       -6.15188300       0.18477500       0.64003700
O       -9.25227300      -0.13851500      -1.31238900
C      -10.10509200       0.62162000      -0.44740200
C       -1.28826100       0.05060300       2.79410300
C       -0.20514300      -0.75211500      -0.17307200
C        0.58401900       0.52912100      -0.14264000
C        1.30674800       0.53241700       1.14858100
C        1.23672000      -0.85021200       1.65394900
C        0.41348800      -1.57129900       0.94771800
N        2.73786100       0.85146100       1.02704600
C        3.45567500      -0.04341400       0.25898800
C        4.90105800       0.23547200       0.13196900
C        5.84588500      -0.63729600       0.68947400
C        7.18051900      -0.35417000       0.54607800
C        7.65875600       0.75592300      -0.12646500
C        6.73720000       1.60356600      -0.66697200
C        5.38115100       1.31999300      -0.52814300
N        9.02887100       1.05142900      -0.29926900
C        9.50779800       2.27263300      -0.89316300
C       10.03606700       0.08276000       0.13833900
H       -0.22790300      -1.27187700      -1.12322800
H        0.89971000       1.32320700       1.85600200
35
Properties=species:S:1:pos:R:3 energy=0.9820784724121582 pbc="T T T"
C       -6.26400600       0.60439400       2.59811700
C       -6.64146400       0.00317600       1.27177200
C       -5.79759200      -0.25987300       0.22025900
C       -6.59554600      -0.80590600      -0.77188600
N       -7.84706200      -0.85047400      -0.29947200
N       -7.88342200      -0.36306700       0.93581900
C       -6.11058000      -1.24586600      -2.09791700
C       -4.32531200      -0.00963700       0.16341900
C       -3.78027900      -0.43581900      -1.19757300
C       -2.31975600      -0.19975500      -1.27450300
N       -1.34916600      -1.06458500      -0.93319000
N       -0.16269200      -0.51731800      -1.13675400
C       -0.34860600       0.72974300      -1.62037900
N       -1.68779200       0.90026900      -1.69538400
C        0.71439100       1.55345400      -1.93500700
C        0.49010500       2.83783800      -2.43346500
C        1.59390500       3.60799800      -2.72808600
C        2.88543700       3.15118100      -2.54660000
C        3.04867200       1.87321500      -2.05070700
C        1.98236600       1.05564800      -1.73756800
N        2.12020300      -0.18384700      -1.25691200
C        1.09240500      -0.99089900      -0.94843300
S        1.31177100      -2.65667000      -0.29741700
C        1.38197700      -2.55485600       1.51439200
C        2.60511800      -1.85412400       1.97034600
O        2.76231200      -1.69664000       3.20672500
N        3.59664200      -1.35934300       1.09765600
C        4.77051700      -0.69506600       1.47659200
C        5.15202100      -0.39617300       2.75574800
C        6.35544400       0.26746000       3.00398200
C        7.20105600       0.64465800       1.97149500
C        6.81257500       0.34008800       0.66640100
C        5.62760200      -0.31144100       0.44551500
F        8.37723800       1.29057100       2.17725600
H       -8.76848100      -0.30871200       1.48575800
33
Properties=species:S:1:pos:R:3 energy=0.9783261227936078 pbc="T T T"
C        6.61887700       3.72892800      -2.18672100
O        5.94476400       3.75500000      -0.96226900
C        5.04912500       2.74963600      -0.60271600
C        4.83322600       1.70736000      -1.49076900
C        3.95954800       0.72454400      -1.14259700
C        3.27468900       0.71201800       0.05382400
C        3.49930700       1.74818500       0.91900700
C        4.38348700       2.75559600       0.58222400
C        2.34533400      -0.37679800       0.37134700
O        1.71119600      -0.41849800       1.44218100
N        2.14801800      -1.42881800      -0.56109000
C        1.21278700      -2.50451600      -0.21718300
C        1.89178900      -3.85673900      -0.34006700
C        1.94479900      -4.12728600      -1.80815300
C        1.09301900      -3.08366600      -2.48676800
C        0.21739700      -2.56788900      -1.35493900
C       -0.38713200      -1.27286300      -1.66300900
O       -0.22126500      -0.74096000      -2.77799400
N       -1.16995100      -0.60816900      -0.69227300
C       -1.77211000       0.66871100      -0.96741900
C       -3.26380000       0.54847900      -0.86173000
C       -3.71655300      -0.69123200      -0.13085600
C       -2.82104200      -1.00241000       1.05533500
C       -1.38872700      -1.20052900       0.60803400
C       -5.11840300      -0.44433100       0.43203200
C       -5.09418100       0.70400700       1.36902600
C       -4.85568100       0.55934700       2.72235400
C       -4.83776400       1.64067500       3.57485300
C       -5.05976900       2.91522300       3.09875100
C       -5.29918800       3.07923400       1.75313200
C       -5.31404200       1.99062600       0.91428300
H        0.77171200      -2.34028300       0.76293400
H       -0.57946500      -3.32258100      -1.13814900
30
Properties=species:S:1:pos:R:3 energy=0.9783261227936078 pbc="T T T"
C       -6.91896500      -1.41495400      -0.66450100
C       -6.01474200      -0.38429800      -1.34738100
N       -4.75721900      -0.32497200      -0.62596400
C       -4.67233400       0.56485700       0.39103700
C       -5.72724800       1.38516200       0.73691400
C       -5.61016900       2.28519200       1.78185700
C       -4.44714000       2.40196800       2.51674200
C       -3.40053800       1.57379400       2.15792600
C       -3.50139500       0.67652900       1.12447500
C       -2.41142600      -0.13419800       0.80735300
C       -2.57600200      -1.01242600      -0.23857900
C       -3.73097600      -1.12660100      -0.96641300
O       -3.86274400      -1.93536500      -1.91928200
O       -1.27660800       0.01528200       1.56463800
C       -0.14179100      -0.76503100       1.29898000
C        0.34741100      -0.50487700      -0.07467000
O       -0.27252000       0.35478400      -0.76251100
N        1.47991200      -1.20177600      -0.60184900
C        1.90214900      -0.89956600      -1.94593000
C        3.40010300      -1.03912900      -2.10734800
N        4.00038000      -1.04031800      -0.80816600
C        3.65403700      -2.04721600       0.15582600
C        2.14805300      -2.16149100       0.20713100
C        4.94440200      -0.04920700      -0.45371800
C        5.54499600      -0.02065500       0.79394100
C        6.45023200       0.98309400       1.04336900
C        6.77662500       1.94908200       0.10771100
C        6.16565100       1.90407200      -1.13441300
C        5.26468700       0.90016700      -1.37435600
Cl       7.24317900       1.06809800       2.61020200
29
Properties=species:S:1:pos:R:3 energy=0.9669838461896731 pbc="T T T"
C       -1.09893800      -2.62797900      -2.28488100
C       -2.54452600      -2.99369300      -2.10813200
N       -3.29026700      -1.75590000      -1.91716600
C       -4.71226700      -2.06736400      -1.74165300
C       -5.30381600      -2.60541200      -3.03036900
C       -2.85573200      -1.03430300      -0.73550600
C       -1.44879300      -0.52438700      -0.98075100
N       -0.96536100       0.20350600       0.16806100
C       -1.12756100       1.54711400       0.35720300
C       -0.52647900       1.84672700       1.56729600
C       -0.56273000       3.17089600       1.98008700
C       -1.17188600       4.14582700       1.21640000
C       -1.76448500       3.82862500       0.01521600
C       -1.73613300       2.51995200      -0.40617900
N       -1.18626500       5.49551200       1.67841600
O       -1.73090300       6.37359400       1.00007800
O       -0.59427800       5.82037000       2.87888500
N       -0.04660100       0.70344400       2.03299200
C       -0.29345900      -0.32830400       1.20709900
C        0.11566600      -1.74345400       1.44135000
C        1.46769600      -1.95564600       0.87960700
C        1.72545500      -2.35486000      -0.41312300
C        3.03849400      -2.51434300      -0.80279000
C        4.10899000      -2.29390700       0.03767500
C        3.82510100      -1.89194300       1.33680500
C        2.53741700      -1.73038100       1.73627200
O        5.41940300      -2.46346000      -0.38607600
C        5.64030300      -2.87123300      -1.71265700
C        5.08195400      -1.89900000      -2.72835700
24
Properties=species:S:1:pos:R:3 energy=0.9631743177730056 pbc="T T T"
C        4.54084600      -1.46428700       0.26175900
C        3.01406800      -1.58991200       0.23433800
N        2.54274100      -0.49101200      -0.56983100
C        3.28517200      -0.09815900      -1.74140800
C        4.57251600       0.54908200      -1.24698300
C        4.86764000       0.02293100       0.14566400
C        6.27166600       0.28888800       0.47459600
O        7.07772500       0.82815200      -0.33047000
N        6.81620300      -0.06073300       1.76650800
C        1.33840200       0.21116100      -0.17989500
N        0.20430300       0.16189300      -0.08791500
C       -0.75257800       0.88833100       0.26751300
C       -0.23043500       2.23759600       0.70353600
S        1.59321600       1.98618000       0.43512300
C       -2.20791400       0.65479800       0.33375500
C       -2.72755000      -0.56294000      -0.02585400
C       -4.09517500      -0.82453900       0.02026100
C       -4.58789200      -2.05188600      -0.34389200
C       -5.91509900      -2.38153700      -0.32550400
C       -6.78177600      -1.35702400       0.10493400
C       -6.32248600      -0.12333100       0.47448500
C       -4.97953700       0.16400300       0.43965100
C       -4.44998200       1.37843900       0.79665500
C       -3.07407500       1.63390600       0.74852200
33
Properties=species:S:1:pos:R:3 energy=0.9555114450274363 pbc="T T T"
C        9.90498000      -0.81428100       0.32686700
C        8.43898700      -0.60671200       0.22934400
C        7.75408700      -1.03441900      -0.90743300
C        6.39349400      -0.84967900      -0.96741400
C        5.63817400      -0.26150900       0.04281200
C        6.32492000       0.15465600       1.16598300
C        7.70998200      -0.02255500       1.23954300
N        4.21529500      -0.10738900      -0.04854300
C        3.47438600       1.01035800       0.16718400
C        2.14815900       0.72701200      -0.04717100
C        0.95337100       1.44070600       0.02064200
N       -0.23328300       0.83412900      -0.25297400
N       -0.30167300      -0.42897200      -0.58233000
C        0.85716800      -1.15956100      -0.65510600
O        0.84361300      -2.37557300      -0.96206000
C        2.08703800      -0.60113300      -0.39440200
N        3.34670700      -1.05353300      -0.38339700
C       -1.49166900      -1.14115500      -0.93501200
C       -2.11985100      -1.78052700       0.23716300
C       -2.61451800      -0.87429300       1.30273400
C       -3.70011500       0.04945600       0.82818600
O       -3.93636700       0.16807500      -0.40296000
N       -4.45203600       0.78362600       1.76871400
C       -5.50847500       1.70438400       1.46549100
C       -6.45785800       0.97257100       0.55135300
C       -6.85213100       1.56949000      -0.63938300
C       -7.74892300       0.89512400      -1.45992400
C       -8.28020100      -0.34008000      -1.15678200
C       -7.86392200      -0.91193300       0.05741400
C       -6.97971500      -0.26216600       0.87623300
F       -6.59048500      -0.88178500       2.05547400
C        1.04093000       2.86789100       0.39863500
C        3.99993100       2.32977800       0.56438500
37
Properties=species:S:1:pos:R:3 energy=0.9555114450274363 pbc="T T T"
C        6.81472400       1.93535800       3.08918000
C        6.51139500       0.91536900       2.05334900
C        6.72688000      -0.41793700       2.33298700
C        6.44102500      -1.33813600       1.36588700
C        5.94353800      -0.95597000       0.12257600
C        5.72989100       0.35927400      -0.15615600
C        6.01669100       1.29280000       0.81642000
C        5.66021900      -2.02362700      -0.87062600
C        4.22130300      -2.50003400      -0.70712200
N        3.37502500      -1.34367700      -0.93366000
C        3.41623200      -0.66167500      -2.18013500
O        4.22344500      -1.12493300      -3.05370100
C        2.57906900       0.52668300      -2.47988000
C        2.87995500       1.63421100      -1.50971100
C        1.62541900       2.38666400      -1.12233800
C        0.71702600       1.46458800      -0.33875000
N        0.54773000       0.25291300      -1.09730300
C        1.14721900       0.12855000      -2.39354800
C       -0.21146800      -0.80075100      -0.55060900
N        0.30840900      -2.01801800      -0.32765400
N       -0.34623900      -3.02904800       0.17516600
C       -1.63947400      -2.90828300       0.51606200
C       -2.27638400      -1.69667400       0.32906600
C       -3.55157200      -1.23056600       0.55834100
N       -3.61165300       0.05800400       0.17901700
N       -2.39847500       0.39726900      -0.28019400
C       -1.55358300      -0.64551600      -0.20603700
C       -4.72266900       0.94234900       0.23150900
C       -5.99397800       0.45889300       0.02469600
C       -7.06869300       1.32204400       0.07686900
C       -6.91218100       2.66619100       0.33161600
C       -5.63843800       3.14347400       0.53755700
C       -4.54827300       2.27923000       0.48665400
O       -8.01882800       3.53646800       0.38203300
C       -9.32489000       3.08651100       0.17790600
C       -4.67342400      -2.01738500       1.12869300
C       -2.39497100      -4.07461300       1.09617800
26
Properties=species:S:1:pos:R:3 energy=0.9555114450274363 pbc="T T T"
C       -1.33951000       0.92143800       2.49447300
C       -2.04264800      -0.39090200       2.64345000
C       -2.76129400      -0.66914400       1.34842000
C       -1.98068500       0.19106800       0.33022500
C       -1.66041300       1.45491600       1.11924700
C       -2.97111000       0.50108500      -0.72648600
C       -2.77260700       0.17065600      -1.98945900
C       -3.82591100       0.52646600      -2.97059300
C       -4.44766400       1.88669300      -2.62022500
C       -5.17221900       1.66190700      -1.31318600
C       -4.19717700       1.19844500      -0.30763300
O       -4.36886300       1.37522800       0.91482300
N       -1.56539900      -0.50256900      -2.32464800
C       -0.59702800      -0.80814300      -1.30477300
N       -0.79983500      -0.48500900      -0.09401800
N        0.62016100      -1.48134000      -1.61207000
C        1.82049700      -1.21624200      -0.88136400
N        1.92310800      -0.33810400       0.13309300
C        3.18725800      -0.34060500       0.58917000
C        3.86510700      -1.25622900      -0.18371100
O        3.00401600      -1.75236500      -1.04838400
C        5.20013600      -1.45237400       0.08260600
C        5.84024400      -0.75818500       1.08746800
C        5.18087800       0.16371900       1.87405400
C        3.84288800       0.36185500       1.60887000
Cl       6.01806800       1.03773600       3.15065100
31
Properties=species:S:1:pos:R:3 energy=0.9555114450274363 pbc="T T T"
C        9.94532500       0.87900700       0.42992000
C        8.50181300       0.62879700       0.43139800
N        8.03914500      -0.62537100       0.38261000
C        6.72870400      -0.92313700       0.38142500
C        5.83414400       0.14324500       0.43393900
C        6.29333400       1.44532500       0.48463200
C        7.64181400       1.71200000       0.48434900
N        4.45284600      -0.14544700       0.43550300
C        3.95106600      -1.49278000       0.39590500
C        2.44095000      -1.51158300       0.50753000
C        1.89740600      -0.65351100      -0.59001900
C        2.51602400       0.72811500      -0.63676400
C        3.51291000       0.93972100       0.47984500
C        0.41802500      -0.51688400      -0.61871400
N       -0.13780500       0.05747100       0.57032600
C       -1.51128200       0.27712400       0.78529900
N       -2.39100000      -0.06577700      -0.16682700
C       -3.73818500       0.11123700      -0.03832100
N       -4.13620000       0.65840500       1.11757700
C       -3.29827400       1.01942300       2.10212700
C       -1.93863700       0.83909200       1.96879000
C       -0.98121500       1.23158300       3.04871500
C       -4.64760600      -0.28669700      -1.09586800
C       -4.15408700      -0.88727000      -2.23391200
C       -5.00938100      -1.29084900      -3.26499400
C       -6.35030200      -1.08938000      -3.14759600
C       -6.86319100      -0.49778500      -2.03317100
C       -6.00033800      -0.10802200      -1.02979900
C       -6.61102700       0.56390400       0.16920100
C       -8.12663500       0.41352200       0.12386100
C       -6.27833900       2.06477400       0.12303100
32
Properties=species:S:1:pos:R:3 energy=0.9555114450274363 pbc="T T T"
C      -10.19450500       0.20048200      -0.74254400
C       -8.73969100       0.37499100      -0.43334900
C       -8.28978500       1.49042700       0.22372800
C       -6.92971200       1.63005700       0.50034100
C       -6.03270300       0.68225900       0.13273200
C       -6.46129000      -0.42871800      -0.51880500
C       -7.83006000      -0.59482000      -0.81071900
C       -4.56350100       0.80802000       0.41824800
C       -4.16151800       2.00807000       1.11279600
S       -2.34703100       1.63538800       1.18615100
C       -2.33566600       0.26510000       0.46318100
N       -3.68474500      -0.01907300       0.11182400
N       -1.33774300      -0.80742500       0.04469700
C        0.00968000      -0.53328000       0.39039100
O        0.25225600       0.54316300       0.99573600
C        1.07037000      -1.47589700       0.04996300
C        0.80291700      -2.64877300      -0.61003900
C        1.85711300      -3.51929900      -0.91329100
C        3.16186000      -3.22537700      -0.56351600
C        3.40974900      -2.04082000       0.09974700
C        2.36156800      -1.16418800       0.40712400
N        2.58361400       0.06087000       1.08794000
S        4.20773200       0.44089400       1.53098100
O        4.13732100       1.73274300       2.33315200
O        4.66873900      -0.63609700       2.49123300
C        5.25044000       0.58410000       0.16665700
C        5.92925500      -0.50231600      -0.32593800
C        6.77711600      -0.38360200      -1.43609500
C        6.92601200       0.83650100      -2.03324000
C        6.25848000       1.93785100      -1.55989600
C        5.41551800       1.79956700      -0.44936200
C        7.82821200       0.94920300      -3.20997700
28
Properties=species:S:1:pos:R:3 energy=0.9555114450274363 pbc="T T T"
C        0.33017100       1.73968600      -2.40884400
C       -0.78397500       1.18591900      -1.59672900
C       -2.09798300       1.51219400      -1.86281100
N       -3.07824300       0.98983200      -1.10222200
C       -2.87678300       0.15590900      -0.08005300
N       -1.58342500      -0.17358600       0.19239600
C       -0.56380700       0.32045400      -0.53640300
N        0.78433200      -0.01430600      -0.25416000
C        1.19394500      -0.89416700       0.79788400
C        2.67057800      -1.06381100       0.90152600
C        3.43906800       0.23453800       1.16654800
N        4.39668500      -0.20704600       0.17901900
C        3.33927600      -0.96328000      -0.45259100
C        5.76819400      -0.02066400      -0.10243100
C        6.41956900      -0.61586400      -1.16184900
N        7.72205700      -0.42356100      -1.41074300
C        8.46258600       0.36823500      -0.62942500
C        7.88856700       0.99852400       0.44748000
C        6.55372200       0.79795900       0.69798500
C       -3.94867800      -0.39624200       0.73821800
C       -3.61631900      -1.24316700       1.79338300
C       -4.61074500      -1.78561600       2.61270800
C       -5.94320400      -1.50427300       2.40762200
C       -6.27310200      -0.66789800       1.36493500
C       -5.28061500      -0.12891100       0.54955000
C       -5.64844800       0.76494400      -0.59615000
C       -7.14554600       1.08634000      -0.44990200
C       -5.51787600      -0.05214400      -1.89401600
26
Properties=species:S:1:pos:R:3 energy=0.9555114450274363 pbc="T T T"
C        6.68313100       1.74563000      -0.52496600
C        5.47924700       1.08054800       0.05736600
C        5.17369100      -0.23653900      -0.22151900
C        4.04938200      -0.82766000       0.33347500
C        3.19839700      -0.14156400       1.17474400
C        3.49948500       1.18733300       1.46109600