32
Properties=species:S:1:pos:R:3 energy=0.9932517730102834 pbc="T T T"
C       -7.96293500      -1.49414600       2.12997200
C       -6.90099700      -0.78724700       1.38715400
C       -6.73227600      -0.99432900       0.03112500
C       -5.75278700      -0.34978000      -0.68300200
C       -4.89863400       0.53424400      -0.05782500
C       -5.04563400       0.75654600       1.28597100
C       -6.03062300       0.10572100       1.99380400
S       -3.64656800       1.35061600      -1.00025100
O       -3.34774800       2.69413500      -0.39893100
O       -4.14136100       1.46755700      -2.40859200
N       -2.19722600       0.43957500      -1.02106000
C       -2.10604500      -0.87033900      -1.57056400
C       -3.16768800      -1.53129000      -2.13727700
C       -3.01383500      -2.81098800      -2.65722900
C       -1.79492900      -3.44868300      -2.61786700
C       -0.73564600      -2.78756700      -2.05169600
C       -0.89053900      -1.52038300      -1.53749700
C        0.25986400      -0.81208300      -0.92686300
O        0.12579900       0.34397800      -0.45587900
N        1.54664000      -1.40242000      -0.84901100
C        2.65841300      -0.74077200      -0.26888600
C        2.61088700       0.52350500       0.27179700
N        3.73308200       1.08286700       0.80994400
C        4.91416500       0.44477200       0.83961400
C        5.00565000      -0.81023900       0.31447800
C        3.86510800      -1.40291200      -0.24304000
C        6.11007200       1.05544800       1.41951100
C        7.30680500       0.37436300       1.43450100
C        8.46357600       0.90919200       1.97098400
C        8.41788700       2.16138400       2.50685200
C        7.24502800       2.88967600       2.51875700
C        6.10249700       2.32058700       1.97100900
34
Properties=species:S:1:pos:R:3 energy=0.9932517730102834 pbc="T T T"
C        5.45538700       4.25377200      -0.10710100
C        4.34295100       3.25734300      -0.31761600
C        3.85939600       3.34701300      -1.75025100
O        4.82277700       1.92826400      -0.08109500
C        3.94513200       0.86849600      -0.22449200
C        4.39580500      -0.41485900       0.00060400
C        3.50986300      -1.45963300      -0.14621700
C        2.20073800      -1.24546300      -0.50886800
C        1.74504700       0.01593000      -0.73346600
C        2.62269300       1.07100200      -0.58968400
C        1.33719400      -2.46432900      -0.63535100
C        0.72817100      -2.67501600       0.75731200
N       -0.03745700      -1.45898100       1.05450100
C       -1.09435400      -1.08149900       0.21877000
O       -1.35761700      -1.80046000      -0.76788800
C       -1.88444800       0.12444700       0.47862400
C       -1.58514400       1.00869100       1.53806100
C       -2.49274100       2.01719000       1.48748100
C       -3.37613400       1.78252700       0.39673000
N       -2.94217700       0.60444000      -0.17425100
C       -3.55932200      -0.00311400      -1.33040700
C       -4.68352600      -0.88859300      -1.04422400
C       -5.99784400      -0.42177000      -0.94403100
C       -7.03513000      -1.31491000      -0.67252300
C       -6.79286400      -2.65909500      -0.49908100
C       -5.50953000      -3.11930200      -0.59624500
C       -4.50141600      -2.23125200      -0.86317000
C       -4.28690700       2.70329200       0.26749300
C       -4.50410800       3.75926300       0.95267600
S       -3.10108600       3.55101200       2.18774800
O        5.71706600      -0.63247000       0.36674000
C        6.24181800      -1.91680300       0.61144700
C        7.70243500      -1.80209800       0.98673300
C        6.11533200      -2.70303300      -0.69790300
33
Properties=species:S:1:pos:R:3 energy=0.9932517730102834 pbc="T T T"
C        7.92306600       4.66077800       1.43017200
O        6.72751100       3.99213400       1.69206900
C        6.30105100       2.94997100       0.89068000
C        7.06705300       2.56356200      -0.18428700
C        6.67011800       1.53232300      -0.99793600
C        5.49017400       0.88472700      -0.72589600
C        4.68985100       1.23385600       0.33600900
C        5.12416200       2.28486500       1.14046900
O        4.33683000       2.64139100       2.19988500
C        3.41958600       0.52968800       0.62084400
N        3.23728800      -0.49037300      -0.35842700
C        2.10539500      -1.36891600      -0.38198400
C        1.10576100      -1.25522100       0.56228700
C        0.01049300      -2.11019800       0.53684100
C       -0.12036100      -3.09936300      -0.42584400
C        0.88463400      -3.20589400      -1.36692200
C        1.97028700      -2.35337400      -1.33633500
S       -1.48702300      -4.19064300      -0.48182500
O       -2.05408600      -4.31460100       0.92521700
O       -1.11252100      -5.53357200      -1.02314800
N       -2.76781100      -3.57727100      -1.46060000
C       -3.37629800      -2.34936500      -1.07311200
C       -4.75981800      -2.24322000      -1.08959000
C       -5.40174800      -1.07263100      -0.72377700
C       -4.67996800       0.04070900      -0.32606800
C       -3.30753600      -0.09384600      -0.31926000
C       -2.65768100      -1.25106400      -0.68023500
C       -5.30663100       1.29596200       0.06851600
C       -4.67667900       2.50408400      -0.15212400
C       -5.22854000       3.71755600       0.20395500
C       -6.46721800       3.75923600       0.81099800
C       -7.10881100       2.56323700       1.03815000
C       -6.55052900       1.35547100       0.67933500
56
Properties=species:S:1:pos:R:3 energy=0.9932517730102834 pbc="T T T"
C       -0.27643800       0.80067400       0.82003500
N       -1.26042500       1.40075300       0.03506500
C       -1.25050900       1.26039700      -1.34253600
C       -0.02508000       1.83730100      -2.03533300
C        1.24831000       1.25394800      -1.62589400
C        1.97194300       1.81835900      -0.59848800
C        3.18203300       1.31546500      -0.16731900
C        3.72854300       0.19877500      -0.76395500
C        3.01551100      -0.37776300      -1.79440300
C        1.80541400       0.12534300      -2.22530000
O        4.95023800      -0.33219200      -0.34974000
S        6.42603000       0.17295200      -1.03614400
O        6.91346700       1.45181000      -0.43128100
C        7.58282500      -1.11893400      -0.83492900
C        8.19505500      -1.73489400      -1.88943000
C        9.11048300      -2.75836800      -1.71535900
C        9.39696500      -3.15181000      -0.41107800
C        8.79870300      -2.55383200       0.68524000
C        7.89136800      -1.53506900       0.43906800
C        7.27781900      -0.91829300       1.50507500
C        7.56048900      -1.30593100       2.78437600
N        8.43448800      -2.28522000       2.98678200
C        9.06402200      -2.92361200       1.98663200
O        6.21958100       0.44917700      -2.68517900
C       -1.59986100      -0.06030800      -1.90796100
O       -1.47588000      -0.20592300      -3.14968300
N       -2.05470400      -1.13968200      -1.14007500
C       -2.35970700      -2.43707800      -1.78508700
C       -3.26414800      -3.28934300      -0.93971400
N       -4.18636600      -2.51481300      -0.15625900
C       -3.70591200      -1.43772900       0.65884200
C       -2.28217300      -1.13458900       0.28625800
C       -5.56566100      -2.81278800      -0.18881500
O       -5.99724700      -3.75460900      -0.89985100
O       -6.47757100      -2.08233100       0.55545700
C       -7.84075300      -2.43336200       0.47931900
C       -8.07135900      -3.82438800       0.93592900
C       -9.33052500      -4.35873000       0.78301900
C       -9.52441400      -5.65220800       1.21892200
C       -8.50962400      -6.39386000       1.78682700
C       -7.24535600      -5.86327600       1.94247900
C       -7.05722600      -4.55828000       1.50057200
S       -2.45453600       2.31715200       0.77885300
O       -3.55557500       2.56540800      -0.25940800
C       -1.91563200       3.86197700       1.38279900
C       -1.96940000       4.10854000       2.73519900
C       -1.53228100       5.33267200       3.23569800
C       -1.04591600       6.30155000       2.39154600
C       -0.99057900       6.06116800       1.04415200
C       -1.42741100       4.83681600       0.54036900
C       -1.35351000       4.65564400      -0.81649300
C       -0.87487900       5.62844400      -1.62974900
N       -0.45733800       6.79708600      -1.15016500
C       -0.51488400       7.01045500       0.17291400
O       -3.22599700       1.44615900       2.00849000
H       -2.09440900       1.94119400      -1.75028700
33
Properties=species:S:1:pos:R:3 energy=0.9895411936137477 pbc="T T T"
C       -3.45838800       1.32831600       1.16265400
C       -2.62799400       0.34045700       0.41771600
C       -1.31445900       0.00129300       0.78919900
C       -0.88685600      -0.91881600      -0.13281800
N       -1.91515900      -1.10844200      -1.01073200
N       -2.93202000      -0.37611200      -0.69044100
C       -4.22023000      -0.28767300      -1.31664600
C       -4.48026600       0.41194100      -2.45764600
C       -5.77085700       0.44085300      -2.96127600
C       -6.83512400      -0.19443600      -2.38710600
C       -6.55569000      -0.90027200      -1.22542100
C       -5.28627400      -0.94914000      -0.70210900
O       -8.11842300      -0.13668200      -2.93470900
C       -9.19146600      -0.83342700      -2.29569500
C        0.42068700      -1.60191400      -0.18069300
C       -0.61118400       0.56256800       1.96864100
C        0.63462000      -0.24142800       2.25719700
C        1.68864300       0.71695900       1.81380200
C        1.08985600       2.04303100       1.64400300
C       -0.20658800       1.95104900       1.73170100
N        2.82346000       0.77469600       2.72502300
C        3.41682600      -0.61083800       2.73451800
C        4.47614100      -0.54213700       1.66458100
C        4.47720600      -1.56957000       0.75390700
C        5.32387700      -1.53503400      -0.35706200
C        6.14119700      -0.44955800      -0.50101800
C        6.14915700       0.57743200       0.40595000
C        5.29914700       0.54362900       1.52623800
N        6.97596600      -0.33819600      -1.65115600
C        8.30378700      -0.87502700      -1.60279100
C        6.40116300       0.33836600      -2.81130500
H       -1.30298000       0.47376500       2.83793800
H        2.09222400       0.40319600       0.78555800
35
Properties=species:S:1:pos:R:3 energy=0.9820784724121582 pbc="T T T"
C       -7.10005300       1.31550800       1.76296900
C       -6.45248800       1.05507900       0.46754600
C       -5.30142800       1.64273400      -0.02771600
C       -5.09960900       1.07078500      -1.27564100
N       -6.08571400       0.19366300      -1.49679300
N       -6.89662500       0.18412000      -0.45359700
C       -3.95111500       1.41774700      -2.16934700
C       -4.46763500       2.66673200       0.64525700
C       -3.56519700       2.10186200       1.69088800
C       -2.59951900       1.11273900       1.08959500
N       -1.39585200       1.42266000       0.55274700
N       -0.77271200       0.34518000       0.10868200
C       -1.60635500      -0.68532800       0.37083800
N       -2.72558200      -0.21190800       0.97240300
C       -1.23839600      -1.96893500       0.02277800
C       -2.02179400      -3.08113400       0.25531700
C       -1.55657200      -4.33726200      -0.13090500
C       -0.33684200      -4.51576200      -0.74029800
C        0.43929600      -3.39900700      -0.96922200
C       -0.00341900      -2.14186600      -0.59432500
N        0.81384200      -1.07446100      -0.84578600
C        0.44131100       0.15832800      -0.50151900
S        1.38606000       1.64139200      -0.77344600
C        2.47479000       2.03560300       0.57996100
C        3.64770100       1.13604800       0.63336600
O        3.56528300      -0.02194300       1.06552600
N        4.85646800       1.68813800       0.16532400
C        6.06593700       0.97985100       0.15445200
C        7.24255100       1.60535500      -0.29019300
C        8.40838300       0.87920100      -0.26337000
C        8.48737200      -0.39232700       0.16072700
C        7.31797100      -1.04345200       0.61229000
C        6.14023400      -0.30407200       0.58441900
F        9.65111000      -1.07203500       0.17740600
H       -7.76140300      -0.40323500      -0.33076200
33
Properties=species:S:1:pos:R:3 energy=0.9783261227936078 pbc="T T T"
C        8.02194500       3.78202600       0.74273600
O        7.38075500       2.91791200      -0.19217800
C        6.34774900       2.07189000       0.18127200
C        5.88382000       2.01890400       1.47446700
C        4.84618700       1.15296200       1.79406100
C        4.29382900       0.36410900       0.83558100
C        4.75838200       0.41662700      -0.46119200
C        5.80133600       1.27946800      -0.80839300
C        3.20105300      -0.55092100       1.16164300
O        2.74381600      -0.63260600       2.33433100
N        2.59698900      -1.39189200       0.18869700
C        1.52555200      -2.27945200       0.54119000
C        1.97492600      -3.68928600       0.14744400
C        1.69873300      -3.76382600      -1.33947900
C        0.81840700      -2.58055400      -1.67508700
C        0.31281100      -2.12542100      -0.32725500
C       -0.25051300      -0.78285000      -0.33750500
O        0.29489300       0.11212200       0.35134900
N       -1.39622900      -0.43914700      -1.09667700
C       -2.06442200      -1.43568500      -1.90979200
C       -3.45676500      -1.00156400      -2.30001200
C       -4.16692400      -0.25412100      -1.22529100
C       -3.35756600       0.79189200      -0.53875900
C       -1.95997300       0.89679500      -1.10906600
C       -5.50414900       0.20170500      -1.70291600
C       -6.21934300       0.95284700      -0.62472000
C       -6.04388300       2.32229200      -0.53909900
C       -6.69920500       3.04595000       0.45683100
C       -7.50763100       2.39900000       1.33844900
C       -7.67222000       1.03590300       1.24045300
C       -7.02790100       0.29372100       0.25435200
H        1.24829200      -2.22475600       1.61314400
H       -0.42275100      -2.90404400       0.00818200
30
Properties=species:S:1:pos:R:3 energy=0.9783261227936078 pbc="T T T"
C        0.32694600       4.06269000      -2.27009700
C        0.33608700       3.27953700      -0.97763400
N        0.52236700       1.85342100      -1.23437900
C        1.80007000       1.40178200      -1.26689600
C        2.83567200       2.27406100      -1.06354000
C        4.14121900       1.83824700      -1.09188200
C        4.37344700       0.50435100      -1.32952300
C        3.33568600      -0.36935100      -1.53330000
C        2.02588200       0.06282700      -1.50612500
C        0.99023000      -0.83504400      -1.71443600
C       -0.29311800      -0.33129300      -1.67253400
C       -0.51736900       1.02530900      -1.42976900
O       -1.67547800       1.50609700      -1.38735200
O        1.27024300      -2.16626800      -1.95432900
C        0.40229700      -3.19940200      -2.16912100
C       -0.45808400      -3.53409500      -1.04356700
O       -1.45538800      -4.30522200      -1.30293600
N       -0.35199600      -3.13694100       0.29776200
C        0.72644800      -2.31346700       0.74227700
C        0.22076500      -1.19323500       1.56496500
N       -1.14493300      -1.22389400       1.95364900
C       -1.99902500      -2.39264200       1.88857900
C       -1.33231100      -3.56770300       1.26164700
C       -1.74620200      -0.03050600       2.44200300
C       -1.02336600       1.12103500       2.44903900
C       -1.48747000       2.33858400       2.89143600
C       -2.78279000       2.37591900       3.35961700
C       -3.54189800       1.20041100       3.36049900
C       -3.04928800      -0.00056900       2.91119000
Cl      -0.44864200       3.75536000       2.84638300
29
Properties=species:S:1:pos:R:3 energy=0.9669838461896731 pbc="T T T"
C        3.24610700      -4.74606000       0.06764100
C        3.04774100      -3.28724200      -0.31062200
N        1.69880900      -2.93825800      -0.06980300
C        1.22351400      -2.86785800       1.24362600
C        1.78025700      -1.74801400       2.08768100
C        0.83109600      -2.81028900      -1.16851100
C        1.03613200      -1.67478700      -2.08461900
N        0.87924900      -0.35434900      -1.57964100
C        1.84760100       0.35267600      -0.96492800
C        1.31963200       1.59446000      -0.68957400
C        2.12474200       2.52311900      -0.04995500
C        3.40513900       2.22800800       0.30033100
C        3.91321500       0.98331600       0.01695400
C        3.16268600       0.02666800      -0.61207800
N        4.23764800       3.19017000       0.97329200
O        5.37879300       2.89297700       1.30474500
O        3.74222900       4.42469500       1.24264500
N        0.06221900       1.59745400      -1.14227200
C       -0.24709400       0.42618100      -1.69286400
C       -1.48235400      -0.06327000      -2.30733200
C       -2.59304700      -0.17345000      -1.36019000
C       -2.72723900      -1.21800600      -0.49621900
C       -3.80181200      -1.33257000       0.38704000
C       -4.76977000      -0.35268600       0.39002500
C       -4.64407800       0.69768900      -0.47099400
C       -3.59454100       0.80576300      -1.33106300
O       -5.82965900      -0.47010300       1.25723500
C       -6.87479400       0.45934200       1.34659600
C       -6.37242200       1.83442300       1.71593700
24
Properties=species:S:1:pos:R:3 energy=0.9631743177730056 pbc="T T T"
C        4.35594300       1.19538200       0.92646600
C        3.08142200       1.11228900       0.15536800
N        2.86125600      -0.23505900      -0.31216300
C        3.89658700      -1.18369600      -0.62618500
C        5.16070300      -0.35350300      -0.89014400
C        5.51608100       0.49703600       0.30182800
C        6.21371200      -0.36078900       1.28832600
O        5.77100800      -0.39518400       2.46269000
N        7.34614500      -1.10129500       0.86155400
C        1.43388900      -0.58551100      -0.45143100
N        0.39550300      -0.13438100      -0.30930700
C       -0.80441200      -0.60087500      -0.48569500
C       -0.80825300      -1.96079000      -0.95467900
S        1.03544900      -2.29932000      -1.04755300
C       -2.09829600       0.07626400      -0.26893800
C       -3.28335100      -0.56929000      -0.50695100
C       -4.51419800       0.03122200      -0.31579600
C       -5.69787400      -0.62726800      -0.55825400
C       -6.92662200      -0.02096400      -0.36507600
C       -6.97866900       1.27167700       0.08007200
C       -5.80653100       1.95412900       0.33064500
C       -4.58331900       1.33183900       0.13188100
C       -3.40114700       1.99432200       0.37569500
C       -2.16502700       1.37362400       0.17764700
33
Properties=species:S:1:pos:R:3 energy=0.9555114450274363 pbc="T T T"
C       -9.32487900       1.96609600       0.02393800
C       -7.87637200       1.61482000       0.08744100
C       -7.61320100       0.35978500       0.59676900
C       -6.30961300      -0.02918000       0.66329600
C       -5.28821000       0.81524700       0.21641300
C       -5.56066800       2.04337600      -0.28572400
C       -6.89216900       2.48769800      -0.36173100
N       -4.00269400       0.19824000       0.26650400
C       -3.69944800      -0.77893500      -0.67154600
C       -2.44755300      -1.21456600      -0.37507100
C       -1.65685000      -2.16588300      -0.99528800
N       -0.44864600      -2.40662900      -0.51043600
N       -0.03819400      -1.68847600       0.57808600
C       -0.73144200      -0.78256000       1.20894800
O       -0.30091500      -0.15468100       2.22768400
C       -1.99769500      -0.50548200       0.74312600
N       -3.00018200       0.35800000       1.08699100
C        1.39025000      -1.97967200       0.78103400
C        2.11250900      -1.56574200      -0.37958900
C        2.31450200      -0.17724400      -0.80878000
C        3.32591200       0.42230300       0.14389400
O        3.48288200      -0.06106100       1.24024400
N        4.08308300       1.60412800      -0.38978800
C        5.14214700       1.90943200       0.72871900
C        6.36542800       1.23768300       0.13316100
C        7.00571000       1.78605700      -1.01841600
C        8.23721700       1.24381700      -1.39736800
C        8.86982300       0.18717600      -0.70296000
C        8.20940000      -0.34898000       0.44137500
C        7.00060000       0.20434700       0.79526700
F        6.35768900      -0.39733200       1.88600200
C       -2.15047400      -2.96867400      -2.17222500
C       -4.55794800      -1.21310800      -1.77318500
37
Properties=species:S:1:pos:R:3 energy=0.9555114450274363 pbc="T T T"
C        7.54796300      -1.15073100       3.98976200
C        7.11399700      -0.47652600       2.74535900
C        7.11416200       0.90165700       2.66088300
C        6.72151300       1.56620600       1.53162700
C        6.29579700       0.88376200       0.39372800
C        6.29374900      -0.50222200       0.47345900
C        6.69260500      -1.14577800       1.61862800
C        5.92740600       1.60385400      -0.81605800
C        4.61181000       2.17425700      -0.97804100
N        3.51038700       1.34866800      -0.90412100
C        2.96068800       0.58225800       0.13685900
O        3.52291200       0.61761500       1.25457100
C        1.75389400      -0.27306500       0.01028100
C        2.04274000      -1.30780000      -1.05223100
C        2.51039200      -0.56451400      -2.28692800
C        1.50827200       0.50479800      -2.67179600
N        0.34569300       0.32288400      -1.83161700
C        0.52146200       0.48868800      -0.40916200
C       -0.88099900      -0.00311800      -2.44675300
N       -0.98816500      -0.14518300      -3.77248800
N       -2.08647100      -0.44658500      -4.42967600
C       -3.22061200      -0.63628600      -3.74725700
C       -3.22351300      -0.51474500      -2.37897400
C       -4.16401600      -0.63341800      -1.38038700
N       -3.58833900      -0.39940800      -0.18450800
N       -2.31649500      -0.13864900      -0.41193000
C       -2.03254700      -0.19196900      -1.71174800
C       -4.30036300      -0.44635800       1.05184200
C       -5.60160500      -0.07221700       1.10161700
C       -6.33614500      -0.09715100       2.26412900
C       -5.73629700      -0.51672300       3.42829300
C       -4.41389300      -0.89918700       3.38846900
C       -3.68808900      -0.86800100       2.20831500
O       -6.48190900      -0.54066000       4.60173600
C       -7.83761500      -0.13983500       4.60064200
C       -5.58586600      -0.97191700      -1.65227100
C       -4.51250200      -0.97956000      -4.39425300
26
Properties=species:S:1:pos:R:3 energy=0.9555114450274363 pbc="T T T"
C       -1.57711600      -3.04960200      -0.66555300
C       -2.19359700      -2.53645500      -1.93275400
C       -2.15675300      -1.04551100      -1.88205100
C       -1.84983700      -0.64196300      -0.45722000
C       -1.53238500      -1.90426800       0.29205100
C       -3.08695700      -0.02991800       0.11123000
C       -3.15193000       1.17205000       0.64056100
C       -4.42414800       1.68653100       1.17557400
C       -5.09212900       0.61205000       1.96577000
C       -5.35925500      -0.63371500       1.15023100
C       -4.33694000      -0.81653400       0.08720300
O       -4.56761800      -1.64541500      -0.81284000
N       -1.94054800       1.95262200       0.67292400
C       -0.75912100       1.41167400       0.14848900
N       -0.73372400       0.23413900      -0.36052500
N        0.49889100       2.11908900       0.13798600
C        1.72658800       1.39826200       0.07929900
N        2.92429400       2.00957100       0.06716400
C        3.91041100       1.07469700       0.00781300
C        3.23960100      -0.13104500      -0.01502400
O        1.92773700       0.10415900       0.02932100
C        4.00384900      -1.27405000      -0.07538100
C        5.38479000      -1.22508700      -0.11187700
C        6.04380000      -0.01496700      -0.08856200
C        5.29180800       1.13896800      -0.02817000
Cl       7.81028900       0.03471900      -0.13565600
31
Properties=species:S:1:pos:R:3 energy=0.9555114450274363 pbc="T T T"
C        9.84175200      -0.54488700      -0.19275400
C        8.38063700      -0.64750600      -0.52940200
N        7.66397900       0.44720100      -0.85989500
C        6.35780000       0.39912300      -1.16619700
C        5.64368600      -0.79070800      -1.16501300
C        6.36060100      -1.93326900      -0.82756800
C        7.70424600      -1.85052700      -0.51730100
N        4.26126000      -0.83913200      -1.48907100
C        3.59606600      -2.10716000      -1.43517800
C        2.09633100      -1.95596200      -1.25295700
C        1.85561800      -0.63101900      -0.51464800
C        2.16089400       0.44552700      -1.56791200
C        3.61894200       0.40087300      -1.85193700
C        0.35768400      -0.53919700      -0.24861100
N        0.06488900       0.69667100       0.45493900
C       -1.25890300       1.04060000       0.78926600
N       -2.30742300       0.27463300       0.47923200
C       -3.58069000       0.63684300       0.81302900
N       -3.73623800       1.79055700       1.46415100
C       -2.71591500       2.60827600       1.80582200
C       -1.42183300       2.24804500       1.47073400
C       -0.26898600       3.11355500       1.82369800
C       -4.70325600      -0.20661000       0.47278200
C       -4.45403500      -1.42339000      -0.17424800
C       -5.49933100      -2.25401700      -0.50946900
C       -6.78784600      -1.89018400      -0.21031100
C       -7.00969500      -0.69479300       0.42313300
C       -5.97260800       0.17298400       0.77860200
C       -6.30909500       1.45330300       1.44767900
C       -7.78338600       1.41809500       1.86490000
C       -6.15514800       2.60120700       0.42450400
32
Properties=species:S:1:pos:R:3 energy=0.9555114450274363 pbc="T T T"
C        7.34213200      -4.11469000       0.98577800
C        6.55350200      -3.00796400       0.36698200
C        7.14586400      -2.23700800      -0.60416100
C        6.40050000      -1.22248500      -1.16078300
C        5.10366400      -0.94952100      -0.79195100
C        4.56451700      -1.75036600       0.18080700
C        5.26895000      -2.77244000       0.76355900
C        4.36181700       0.16335100      -1.43840200
C        4.95433500       0.93023500      -2.40593800
S        3.59726200       2.11830500      -2.82879300
C        2.46756300       1.29748500      -1.55883700
N        3.12441100       0.49305800      -1.14859900
N        1.12731300       1.95950300      -1.51821600
C        0.16806900       1.46892300      -0.62488900
O        0.48230200       0.49693300       0.09755100
C       -1.18610300       2.01616900      -0.47484200
C       -1.59467200       3.09606500      -1.24931900
C       -2.85100000       3.62930300      -1.13299700
C       -3.71035600       3.05985400      -0.21628500
C       -3.31666400       1.97889000       0.56618600
C       -2.05260500       1.46586000       0.42809700
N       -1.60061200       0.35007300       1.21422600
S       -2.71523800      -0.32086000       2.34081700
O       -3.14924900       0.75211500       3.29656500
O       -2.02722700      -1.45321900       3.03839000
C       -4.09357100      -0.92026000       1.45835700
C       -4.06449800      -2.22073100       1.02246300
C       -5.15383700      -2.69721100       0.32410100
C       -6.25707200      -1.90823400       0.05694600
C       -6.25676500      -0.61059600       0.50624800
C       -5.19030200      -0.12941600       1.19503500
C       -7.44243100      -2.38370900      -0.68809400
28
Properties=species:S:1:pos:R:3 energy=0.9555114450274363 pbc="T T T"
C        0.53631200      -2.97511700      -2.41107900
C       -0.43987500      -2.12534100      -1.68336100
C       -1.72352800      -1.98082000      -2.21301700
N       -2.62607600      -1.22400600      -1.58446200
C       -2.33709100      -0.58653700      -0.44168100
N       -1.10052200      -0.72901500       0.06353900
C       -0.13888700      -1.47099600      -0.50785100
N        1.17118200      -1.63030200       0.01127100
C        1.56652100      -0.97712600       1.24075300
C        1.39252300       0.52276300       1.02000900
C        2.29153700       0.93367000      -0.14892000
N        3.39648300       0.89847200       0.78906900
C        2.43278600       1.32587900       1.80688900
C        4.77892400       0.59610700       0.77224600
C        5.57586000       0.67356000       1.89032700
N        6.88387900       0.37219600       1.80899300
C        7.48398300      -0.01183900       0.67198300
C        6.71934600      -0.10090600      -0.46702600
C        5.37693700       0.20424800      -0.40149600
C       -3.34331200       0.23733800       0.22728900
C       -2.97790800       0.85150000       1.42920700
C       -3.81446700       1.63869300       2.16001900
C       -5.10064100       1.81960200       1.64891100
C       -5.46198700       1.21544700       0.46478500
C       -4.59551700       0.42539700      -0.25252900
C       -5.03208200      -0.19201100      -1.53240500
C       -6.53142900       0.04457000      -1.68804500
C       -4.38295000       0.61627700      -2.67341800
26
Properties=species:S:1:pos:R:3 energy=0.9555114450274363 pbc="T T T"
C        6.33222800      -0.81669300      -1.98860000
C        5.23148500      -0.25654300      -1.15029100
C        4.86924200      -0.84675100       0.04300900
C        3.84838800      -0.34480500       0.84124900
C        3.15895400       0.77811600       0.45180000
C        3.52238500       1.36377800      -0.73773300