16
Properties=species:S:1:pos:R:3 energy=3.4011973816621555 pbc="T T T"
C        6.39205300       1.16733800      -1.23586500
C        4.95516700       1.17884200      -0.76342400
C        4.84732900       0.30344100       0.46131900
C        3.43814200       0.26467000       0.99257900
O        2.57782400      -0.24656600       0.00514500
C        1.22780400      -0.41946100       0.14889800
C        0.52391200      -0.93403900      -0.91809800
C       -0.83255600      -1.15729900      -0.90693400
C       -1.55678800      -0.86020400       0.21910100
C       -0.88991300      -0.34513900       1.30409400
C        0.48449300      -0.12687000       1.27141200
C       -3.01702900      -1.10898600       0.20849800
C       -3.77228200       0.07932300      -0.27142100
O       -3.22546200       1.15639300      -0.62195400
N       -5.18971000       0.01008500      -0.34368800
O       -5.96298400       1.03847300      -0.76721800
22
Properties=species:S:1:pos:R:3 energy=3.4011973816621555 pbc="T T T"
C        6.22566200       1.49134700       0.55133100
O        5.56630500       0.25537600       0.24080700
C        4.20892500       0.29058200      -0.04314700
C        3.56934300      -0.89167000      -0.34207400
C        2.20892500      -0.87516300      -0.62924500
C        1.48421100       0.29463900      -0.62230600
C        2.13423900       1.47023400      -0.32207500
C        3.49510900       1.48764200      -0.03013500
C        0.03302500       0.35964600      -0.92210700
C       -0.70058400       0.18634100       0.38873400
N       -2.13328300       0.23001500       0.23822900
C       -2.74578400       1.44258800       0.34014900
C       -4.11119700       1.53698300       0.20402900
C       -4.86742400       0.41450200      -0.03497500
O       -6.11125500       0.50877200      -0.15782400
N       -4.24160700      -0.75819100      -0.12988400
C       -2.90492300      -0.82914800       0.00636100
S       -2.20884100      -2.29553900      -0.12174700
N       -2.01262300       2.62869000       0.58550700
O        4.31834500      -2.05869200      -0.34346800
C        3.62385900      -3.27450500      -0.65868400
H       -4.83042600      -1.61444800      -0.31350000
26
Properties=species:S:1:pos:R:3 energy=3.4011973816621555 pbc="T T T"
C       -3.94293900       3.06017600      -1.64586600
O       -3.65381600       1.85100700      -1.01357200
C       -4.59976900       0.96546000      -0.51885000
C       -4.15073400      -0.18033200       0.07551300
C       -5.02082600      -1.13528500       0.60491000
C       -6.37162100      -0.89320200       0.51367700
C       -6.83882100       0.25744500      -0.08276100
C       -5.95423900       1.19836000      -0.60512100
Cl      -7.45172700      -2.10730400       1.18601800
C       -2.72834200      -0.44903800       0.17886500
O       -2.27692300      -1.49015400       0.71774600
N       -1.79853200       0.48406700      -0.34062400
C       -0.40996500       0.19602400      -0.22612200
C        0.02224500      -0.96446800       0.37642200
C        1.36354000      -1.26117800       0.49678600
C        2.34417800      -0.40437500       0.01634200
C        1.87860100       0.74630300      -0.58009300
C        0.54647100       1.06107200      -0.71026700
N        3.71751700      -0.73662500       0.15460900
C        4.68738600       0.16261200      -0.34795700
O        4.30361900       1.22484400      -0.89972600
C        6.13270800      -0.11640600      -0.23986000
C        7.14055300       0.69574900      -0.69731800
C        8.34865500       0.08402600      -0.40662900
C        8.00498000      -1.09381700       0.22619200
O        6.70780300      -1.15496200       0.29408100
21
Properties=species:S:1:pos:R:3 energy=3.4011973816621555 pbc="T T T"
C       -3.81710100       1.32141900      -1.51693700
C       -3.01814900       1.82527600      -0.33982700
C       -2.56150700       3.24630200      -0.61460100
C       -3.84001600       1.84461500       0.93154600
N       -1.86226700       0.94674700      -0.19096100
C       -1.93006200      -0.37372300      -0.00407100
N       -2.96714000      -1.24399900       0.09951300
C       -2.71849100      -2.54917900       0.29148200
N       -1.47021500      -3.03698100       0.38672300
C       -0.39515600      -2.20997400       0.29008400
C       -0.63707800      -0.86614700       0.09257300
C        0.21264400       0.20671600      -0.04314800
N       -0.58695700       1.28391000      -0.21299000
C        1.69388500       0.23548400      -0.01541900
C        2.46725400      -0.65090200      -0.69379000
C        3.84774300      -0.60757700      -0.65528900
C        4.45590500       0.38072500       0.10661900
C        3.68642300       1.28728400       0.80051200
C        2.31475800       1.21297300       0.73822600
Cl       6.20415200       0.44306800       0.16114900
N        0.92137300      -2.69603600       0.38860600
29
Properties=species:S:1:pos:R:3 energy=3.4011973816621555 pbc="T T T"
C        2.03134100       2.96705600       0.11029700
N        2.16011900       1.52051700       0.19294600
C        3.40607600       1.01797800       0.27191400
C        4.49909400       1.85370800       0.27300900
C        5.78611600       1.30858500       0.35599100
C        5.96416000      -0.06045300       0.43657400
C        4.86314400      -0.89919500       0.43530200
C        3.58226000      -0.34876800       0.35229800
C        2.47424100      -1.18019900       0.35036400
O        2.67915100      -2.43480900       0.42595500
C        1.19578400      -0.66402000       0.26931100
C        1.06403500       0.70613600       0.19060500
N       -0.15608000       1.23381100       0.11138900
C       -1.22775200       0.41206600       0.11046900
N       -1.12613800      -0.92733500       0.18627300
C        0.09305400      -1.48374100       0.26698600
O        0.28487900      -2.72151700       0.34113500
C       -2.27964600      -1.74896000       0.18195000
C       -3.21334400      -1.58435500       1.17613200
C       -4.35305500      -2.37954800       1.19184900
C       -4.52571800      -3.32207900       0.20570400
C       -3.57668400      -3.47074500      -0.78239500
C       -2.43874800      -2.69579900      -0.82094300
C       -2.59885500       1.03284500       0.01998800
C       -2.67560500       1.68070700      -1.34000700
C       -3.63427800       2.83352200      -1.38827400
C       -3.30571300       3.88804300      -0.35643700
C       -2.29818600       3.41696800       0.64961900
C       -2.67365400       2.04958000       1.14044100
29
Properties=species:S:1:pos:R:3 energy=3.4011973816621555 pbc="T T T"
C        2.01109900       2.37208400       0.98523500
C        1.30862800       1.07649900       0.99053000
C        1.99089500      -0.10670600       1.04478200
C        1.29025600      -1.33254200       1.07734200
C       -0.08235900      -1.36056600       1.05431000
C       -0.74899800      -0.15577500       0.99854300
C       -0.08946000       1.05153000       0.96641500
N       -0.81703400      -2.59488900       1.08656900
S       -2.12613800      -2.73486500      -0.02384500
O       -2.77538300      -4.08747900       0.06641400
O       -1.54101800      -2.52542800      -1.41322400
C       -3.36035400      -1.54145000       0.24404900
C       -4.43927100      -1.73461800       1.08493500
C       -5.38275100      -0.72687700       1.24275500
C       -5.24456400       0.46399200       0.56271900
C       -4.16715300       0.68529700      -0.29093100
C       -3.26568600      -0.34416500      -0.40904000
C       -4.04003300       1.94489400      -0.99709800
O       -3.07218300       2.14062800      -1.76242700
O       -4.98950300       2.92979900      -0.82400000
S        3.73501600      -0.11437900       1.04102200
O        4.25563300       0.78887000       2.15153100
O        4.24166900      -1.53240100       1.27784500
N        4.33638300       0.45301000      -0.43243800
C        4.03119000       1.77435600      -0.81773200
C        5.00036700       2.24764000      -1.88652000
O        5.43018700       1.16656800      -2.65832200
C        4.39431200       0.23145500      -2.83664500
C        4.11625300      -0.47282200      -1.52277600
28
Properties=species:S:1:pos:R:3 energy=3.4011973816621555 pbc="T T T"
C       -4.06264200      -3.49672900      -1.05565100
O       -4.78590900      -2.27855200      -0.98210700
C       -4.08407200      -1.12191900      -0.67870400
C       -2.71317800      -1.11231600      -0.44652900
C       -2.03212200       0.04592700      -0.14607400
C       -2.75430400       1.21388900      -0.07999000
C       -4.11812600       1.20133500      -0.31151100
C       -4.80550800       0.04974400      -0.61212000
O       -6.17328600       0.11410200      -0.83201900
O       -4.80874800       2.41507900      -0.23296800
C       -4.15763200       3.62767800       0.07089600
C       -0.57067900       0.02807100       0.09734600
N        0.22227400      -1.05792800       0.05567600
C        1.47640800      -0.72682300       0.32054800
C        1.45775800       0.64720600       0.53919800
N        0.19711300       1.08977800       0.39803900
C        2.64921500       1.48139300       0.87580600
C        3.44681700       1.37885700       1.99023100
C        4.45448400       2.25790300       2.04291400
C        4.71781200       3.12642300       1.19866600
S        3.33114800       2.78867000      -0.04555700
C        2.69495500      -1.52492200       0.39766000
C        3.75649900      -1.31897500      -0.45746800
C        4.92040200      -2.05781700      -0.40725500
C        5.05868600      -3.06316400       0.53842400
C        3.99659700      -3.26730300       1.39212500
C        2.83103900      -2.53023700       1.34463200
H       -0.14500400       2.09063100       0.50174600
16
Properties=species:S:1:pos:R:3 energy=3.4011973816621555 pbc="T T T"
C       -1.86215700      -1.86083800       1.69905700
N       -2.18526500      -1.34187800       0.40009000
C       -2.92878300      -2.15116100      -0.52764700
C       -1.77114700      -0.03463900       0.03559000
C       -0.40150400       0.31473700      -0.07730100
C        0.69236400      -0.43412500       0.10087500
C        1.93643800       0.08878000      -0.05797900
S        1.56716300       1.79949800      -0.50198100
C       -0.20809100       1.64069000      -0.43003200
N       -1.17627400       2.53510700      -0.65161100
C       -2.48248700       2.20478000      -0.54511500
C       -2.74047900       0.91394100      -0.20054600
C        3.24387600      -0.47574900       0.06835900
O        3.32858000      -1.68741400       0.38591500
N        4.37775300       0.34972800      -0.16829900
N        0.61001200      -1.86145700       0.47062600
25
Properties=species:S:1:pos:R:3 energy=3.4011973816621555 pbc="T T T"
C        6.29863500      -0.29156700      -0.21159300
C        5.39448800      -0.54634600      -1.42664900
C        5.92758100       0.29783500      -2.55929600
C        5.51371100      -2.00195500      -1.75217300
C        4.00646100      -0.15703900      -1.01415700
C        3.85991500       1.26187900      -0.60618000
C        2.56604700       1.88128600      -1.08688700
C        1.40285000       0.95405200      -0.79456000
C        1.62841100      -0.33505600      -1.25073400
C        2.94178500      -0.65179200      -1.95229400
S        0.21709000      -1.15602000      -0.81243500
C       -0.63848800       0.13936200      -0.05927000
C        0.24957100       1.20503800      -0.18580000
C       -0.15098700       2.52942700       0.36197400
O       -1.24587500       2.72829700       0.92920300
N        0.72887000       3.63319800       0.24966300
N       -1.93339300       0.14429800       0.54904400
C       -2.72092700      -1.03694800       0.59723300
O       -2.20930700      -2.06527500       0.07800600
C       -4.04530500      -1.08260200       1.20561900
C       -4.59106500       0.04976300       1.76914300
C       -5.83872800       0.05557000       2.35554500
N       -6.53241800      -1.09417200       2.36827200
C       -6.04221700      -2.22346800       1.83162400
C       -4.78670700      -2.23776500       1.23923600
21
Properties=species:S:1:pos:R:3 energy=3.4011973816621555 pbc="T T T"
C        5.35658900       0.52396100       0.46159500
C        5.66492100      -0.10885200      -0.70068200
C        4.65526200      -0.64410300      -1.48683200
C        3.37095300      -0.52422000      -1.09689100
C        3.05092900       0.13293500       0.10669900
C        4.04843400       0.64402000       0.86854300
C        1.69085100       0.21009900       0.42764500
N        1.37150000       0.82893000       1.55216700
N        0.71850100      -0.29325100      -0.34191100
N        1.13055100      -0.88439900      -1.45312500
N        2.37799000      -0.99862100      -1.81258700
C       -0.65599900      -0.20630900      -0.03123100
C       -1.58125500      -0.75042500      -0.94268400
C       -2.94653200      -0.71851000      -0.74854200
C       -3.44792800      -0.13148500       0.38007000
C       -2.57270300       0.41978400       1.29504200
C       -1.18477500       0.37353600       1.07155800
C       -4.92697300      -0.03807400       0.60930700
F       -5.45694200       0.77201800      -0.37220000
F       -5.45245800      -1.35085700       0.42666800
F       -5.21091600       0.49788800       1.78739000
27
Properties=species:S:1:pos:R:3 energy=3.4011973816621555 pbc="T T T"
C        7.35038600      -1.84517600       0.36629400
C        7.81244700      -0.68222500      -0.18117800
C        6.96918300       0.32722200      -0.57329200
C        5.60981800       0.13757300      -0.39827000
C        5.13701100      -1.03027500       0.15209600
C        6.00054300      -2.00766100       0.52861300
C        3.75704500      -1.17070400       0.30662900
C        2.92904700      -0.16326900      -0.08561300
C        3.47199400       0.96870200      -0.62472400
O        2.76562000       1.93043600      -1.00478400
O        4.78578400       1.09113000      -0.76684000
C        1.45376700      -0.24022900       0.04707900
C        0.96237100      -1.52105200       0.64888800
S       -0.87263500      -1.20469100       0.63087500
C       -0.75610300       0.37390700      -0.07818800
N        0.57028300       0.56682700      -0.25245900
N       -1.80860900       1.27330500      -0.40744200
C       -3.15418800       0.86765400      -0.13735000
C       -4.21404200       1.68356600      -0.42890500
C       -5.51376400       1.25504700      -0.15172200
C       -5.78249000       0.02710800       0.41162100
C       -4.71741500      -0.79217400       0.70432200
C       -3.42399100      -0.36079800       0.42629000
C       -7.14990600      -0.39436800       0.69021400
O       -7.34442200      -1.53045100       1.20779700
O       -8.25019100       0.37304700       0.42291600
O       -6.58754200       2.06754800      -0.44083300
23
Properties=species:S:1:pos:R:3 energy=3.4011973816621555 pbc="T T T"
C       -4.62393100       1.77113300      -0.18532300
N       -3.50941600       0.82538300      -0.13538400
C       -2.22317700       1.15425000      -0.12354800
N       -1.51339100       0.01374500      -0.07439600
C       -2.40509900      -1.02260500      -0.05653800
C       -2.26614300      -2.38630800      -0.01014900
C       -3.37750300      -3.23687200      -0.00212000
C       -4.62847800      -2.69214500      -0.04150700
C       -4.79002000      -1.32326200      -0.08845400
C       -3.67086200      -0.49186000      -0.09573000
N       -0.14170000       0.10286000      -0.05336700
C        0.65949600       1.04645100      -0.06983900
C        0.32746100       2.46783700      -0.12147300
S       -1.43914700       2.75434900      -0.16144900
C        2.11829200       0.72893500      -0.03419900
C        3.04537400       1.72998300      -0.05034100
C        4.39186000       1.46546600      -0.01838000
C        4.80780900       0.14093400       0.03156500
C        3.87322100      -0.86601100       0.04776700
C        2.55708100      -0.56727500       0.01523200
O        6.16083300      -0.15109000       0.06452100
C        6.64744100      -1.46389800       0.11531700
Br       0.00000000       0.00000000       0.00000000
31
Properties=species:S:1:pos:R:3 energy=3.4011973816621555 pbc="T T T"
C       -4.59074600      -3.53527200      -0.12408000
C       -3.42102600      -3.29965000       0.77617100
O       -2.78228000      -2.06814300       0.41663000
C       -1.66945800      -1.66643900       1.13473300
O       -1.26876400      -2.39010900       2.06722800
C       -0.96078400      -0.36606600       0.78048500
C        0.22943900      -0.31927200       1.81301400
C        1.31397800       0.58072900       1.31776700
N        1.99146000       0.02001000       0.16427400
C        1.10795400      -1.04730900      -0.33460600
C       -0.29943800      -0.49757100      -0.53026700
C        3.18957600      -0.61952300       0.61869400
C        3.83821200      -1.47294200      -0.44739400
C        4.78846500      -0.67089600      -1.31306500
N        5.68876200       0.13391800      -0.52295300
C        5.00718600       1.04006600       0.33589300
C        4.16529000       0.26912000       1.31923900
C        6.68243900      -0.62668500       0.15901400
C        6.16826200      -1.58817300       1.16824000
C        7.72290200       0.29180200       0.75020600
C       -1.77115000       0.79938500       1.10909500
C       -3.09033400       1.03063500       0.56945500
C       -4.17172000       0.50264500       1.31455800
C       -5.46124700       0.64823900       0.92359300
C       -5.73145900       1.32880100      -0.23479100
C       -4.70919700       1.84030700      -0.95925400
C       -3.35911600       1.70300800      -0.57223700
C       -2.33888000       2.34023700      -1.47932200
F       -3.01964000       3.07688100      -2.45895000
F       -1.67880500       1.38025300      -2.21107500
F       -1.56988100       3.18201600      -0.75952600
26
Properties=species:S:1:pos:R:3 energy=3.4011973816621555 pbc="T T T"
C        1.21572400      -0.25572500       0.00000000
C       -0.05663900       0.55084000      -0.00000000
O       -1.15908600      -0.29511500      -0.00000000
C       -5.99592300      -0.87642000      -1.35798400
C       -5.66923200       0.34244300      -1.91015300
C       -4.59370400       1.03789000      -1.40864300
C       -3.83909300       0.54762900      -0.37284200
C       -2.74459800       1.25757900       0.13593600
C       -1.97513100       0.78105800       1.17576300
C       -2.32588200      -0.44578700       1.71141700
C       -3.40152400      -1.15250100       1.21769100
C       -4.17771700      -0.67182300       0.16877900
C       -5.25173400      -1.37702300      -0.32452300
S       -0.57893000       1.68487100       1.82607700
C        0.92585000       1.27558400       1.00016200
C        1.68612800       0.23599300       1.49642300
C        2.88049000      -0.13679300       0.89345700
C        3.34278600       0.52811300      -0.22758800
C        2.58364700       1.56586800      -0.72279900
C        1.40411500       1.92320800      -0.11545500
N        4.50543800       0.15317700      -0.80132700
C        5.22869800      -0.85573300      -0.30735600
N        4.76557600      -1.49587500       0.78722400
C        3.63365200      -1.18569800       1.40596700
N        3.14567900      -1.85371800       2.55218200
N        6.45141100      -1.28204200      -0.87563300
25
Properties=species:S:1:pos:R:3 energy=3.4011973816621555 pbc="T T T"
C       -6.06115300      -1.61235400      -1.33624100
C       -7.23412100      -1.26781900      -0.70177800
C       -7.24153100      -0.46242500       0.40980600
N       -6.05235200      -0.01090400       0.87083700
C       -4.89187400      -0.29864200       0.31639000
C       -4.88876500      -1.10645600      -0.79794300
C       -3.60030200       0.18402200       0.80643800
C       -3.62727900       1.05154700       2.00631000
S       -1.84017500       1.40532900       2.25130500
C       -1.37172200       0.36329400       0.75081900
N       -2.38963300       0.01014100       0.40217300
N        0.07988600       0.29627200       0.46121200
C        0.52294700      -0.45402200      -0.63359300
O       -0.35267500      -1.03846800      -1.32060500
C        1.94458400      -0.53644900      -0.94033000
C        2.86974100       0.12102500      -0.15907300
C        4.23682400       0.04458000      -0.45011800
C        4.66753700      -0.68732100      -1.51811400
C        3.75633700      -1.35054100      -2.30919000
C        2.41515100      -1.26556300      -2.00989400
N        5.12799400       0.76457900       0.42200700
C        4.89606100       1.03378000       1.71104500
N        5.95460300       1.71419000       2.16656900
N        6.78769300       1.83960000       1.16345600
N        6.29222500       1.26260400       0.09187100
31
Properties=species:S:1:pos:R:3 energy=3.4011973816621555 pbc="T T T"
C       -3.01828400       1.11586000       3.65537200
C       -3.32352800       1.83120300       2.34289100
N       -3.98091200       0.97330700       1.40053700
C       -5.30566700       0.89484800       1.37096900
C       -6.00282300       0.08832800       0.48859200
C       -5.27279900      -0.65210700      -0.38282700
O       -5.86178800      -1.40324400      -1.20731200
C       -3.89295600      -0.58313200      -0.36647000
C       -3.12184400      -1.31959200      -1.23522900
N       -1.78205700      -1.22818700      -1.19167500
C       -1.13024400      -0.42595400      -0.31211700
N       -1.91072100       0.27807300       0.52032100
C       -3.24256200       0.25198400       0.55039900
N        0.29155500      -0.35149800      -0.29142300
C        0.89041900       0.53648400       0.68785100
C        1.97399900       1.30794200      -0.07797800
N        2.90335000       0.31431200      -0.54703000
C        2.47496900      -0.77532200      -1.34222900
C        1.03460100      -1.13971000      -1.21774700
C        4.26946300       0.44290100      -0.19795700
S        4.78695900       1.68994100       0.71740400
N        5.23142200      -0.50629000      -0.63164500
C        6.59447300      -0.36226900      -0.27307100
C        7.52828300      -1.28529300      -0.69528100
C        8.87555900      -1.16172600      -0.35313000
C        9.27556700      -0.08943800       0.42541900
C        8.35187000       0.81801400       0.83941400
C        7.03300300       0.69429100       0.50267100
C       -7.44184200       0.02019600       0.47583700
O       -8.01958000      -0.72961600      -0.34763500
O       -8.20788600       0.75569500       1.34325100
31
Properties=species:S:1:pos:R:3 energy=3.4011973816621555 pbc="T T T"
C       -2.07798000       2.26761100      -0.91190000
C       -3.53700600       2.19131700      -1.21418500
N       -4.18411900       1.07005100      -0.55464800
C       -3.42096500      -0.05407500      -0.04579300
C       -2.22073200      -0.21111400      -0.96348000
N       -1.43462300       0.99557700      -0.82977900
C       -0.03008500       0.91760300      -0.61798700
C        0.72032000       2.06767700      -0.49052000
C        2.08643000       2.01666400      -0.28423200
C        2.75859400       0.81529900      -0.19686000
C        2.00883800      -0.33587200      -0.32424200
C        0.64171400      -0.28367000      -0.53066800
N        4.17280400       0.80122000       0.01715000
C        4.90366600      -0.40324500       0.11350700
O        4.30428700      -1.48935500       0.00981600
C        6.33437000      -0.37612500       0.33049300
C        7.01695600      -1.57565000       0.41969100
C        8.37256100      -1.60942900       0.62456900
C        9.02318900      -0.38953100       0.73750000
N        8.34455700       0.77330100       0.64846900
C        7.02036100       0.83487300       0.44867300
Br       9.33197700      -3.25589500       0.75041600
C       -5.57694300       1.06604700      -0.40224800
O       -6.29030700       2.01300500      -0.82331500
C       -6.27914600      -0.04092300       0.25571900
C       -6.51545000      -0.04525100       1.61560900
C       -7.17664600      -1.09087200       2.22471300
C       -7.62902100      -2.17336500       1.50621200
C       -7.39427900      -2.17201200       0.14621400
C       -6.73590600      -1.13220300      -0.46444900
F       -6.53741700      -1.19165700      -1.80184600
32
Properties=species:S:1:pos:R:3 energy=3.4011973816621555 pbc="T T T"
C       -8.69697200       1.19268700      -2.11599400
C       -7.56473400       1.72080000      -1.31010200
C       -6.62322500       0.89946700      -0.71084000
C       -5.57773400       1.39736900       0.03388700
C       -5.50718000       2.77636400       0.15979300
C       -6.42645000       3.62145800      -0.42289700
C       -7.44672700       3.08835100      -1.15231600
N       -4.61029500       0.53955500       0.64886700
C       -4.90500900      -0.21149700       1.73161600
C       -3.98943400      -1.04493600       2.34077600
C       -2.71425800      -1.08442900       1.78244200
O       -1.80264100      -1.80304700       2.24944000
C       -2.42669900      -0.31182200       0.67606300
N       -3.39921000       0.46387600       0.16647700
C       -1.08644600      -0.36436500       0.10314600
O       -0.87558200       0.36890700      -0.91770500
N       -0.04833800      -1.15665000       0.60271900
C        1.23016300      -1.15507400      -0.00869500
C        1.49859200      -0.37869800      -1.11039000
C        2.77144300      -0.39650800      -1.69488000
C        3.76698400      -1.18566200      -1.17974900
C        3.49345600      -1.96219200      -0.07544300
C        2.22394600      -1.94111900       0.50336800
S        5.37291000      -1.22639100      -1.89417300
O        5.18911500      -0.83660400      -3.35240700
O        5.96267400      -2.58836600      -1.85555000
N        6.34830800      -0.03386900      -1.16235200
C        6.66798200      -0.01043600       0.19404400
N        6.54411200      -0.55153800       1.28496300
C        7.06811500      -0.14844600       2.40085100
C        7.79632500       0.88454000       2.51485600
S        7.76680800       1.43827700       0.70031800
22
Properties=species:S:1:pos:R:3 energy=3.4011973816621555 pbc="T T T"
C        7.08698600       1.03847000       0.47266500
C        6.94895100       0.77651200      -0.97682700
C        6.49423900      -0.28073400      -0.00072000
C        5.01494100      -0.45575400       0.18305300
O        4.60026300      -1.40294800       0.89212900
N        4.06136000       0.39864400      -0.40662800
C        2.66547200       0.21850700      -0.22224300
C        1.78151500       1.07657600      -0.81732200
C        0.41294500       0.92896000      -0.65776900
C       -0.11620700      -0.09193200       0.10967400
C        0.78681100      -0.94760700       0.70228100
C        2.14545100      -0.80659100       0.54793600
C       -1.55282200      -0.26402900       0.28973000
O       -1.95357500      -1.21822900       1.00342400
N       -2.48462900       0.61873900      -0.32152000
C       -3.87593600       0.40408000      -0.11200100
C       -4.32212800      -0.64007400       0.66921800
C       -5.64907400      -0.89817400       0.90812300
C       -6.58767100      -0.06723500       0.33512500
C       -6.17780500       0.98684600      -0.45199400
C       -4.83583900       1.21906500      -0.67251900
O       -4.44324600       2.29339500      -1.47381400
39
Properties=species:S:1:pos:R:3 energy=3.4011973816621555 pbc="T T T"
C        9.57710400       0.48623500       0.50805300
C        8.46723800       0.04899100       1.42558900
C        8.03160900       1.23454900       2.28347000
C        7.30726700      -0.55348300       0.72281900
C        7.68651700      -1.74385500      -0.04446900
O        7.22167200      -1.91184000      -1.20378400
O        8.54811600      -2.71842000       0.44680200
N        6.42444700       0.35746700       0.11959700
C        6.74523500       1.10279900      -1.02742100
O        7.86826300       0.97720100      -1.56828000
C        5.74564700       2.06214600      -1.62127000
N        4.52746100       2.00211900      -0.80552100
C        3.82691800       0.75766300      -0.69439600
O        4.29229600      -0.23377500      -1.31208700
C        2.59869700       0.66015800       0.12445500
O        2.14584500      -0.65776700       0.07316900
N        1.04054300      -1.08679500       0.71632100
C       -0.12589300      -0.53111400       0.67416900
C       -0.29648600       0.68477900      -0.14220600
C       -1.77022300       1.05370900      -0.25012000
C       -2.57348900      -0.20680700      -0.38419400
C       -4.00744500       0.12532000      -0.63745800
C       -4.43412400       1.30281500       0.20214300
C       -5.75272600       1.76613200      -0.30963100
C       -6.77488100       0.70534500      -0.15541700
C       -6.35628100      -0.69566000      -0.29507900
C       -4.95540300      -1.02443400      -0.54978200
C       -4.49327200      -2.11184800       0.38610900
C       -3.70704800      -1.47473800       1.51310200
C       -2.45066800      -0.96329900       0.91491900
C       -1.25013500      -1.11833600       1.42942600
C       -7.06774400      -1.53091100       0.71208100
C       -8.17106200      -0.61181500       1.19573700
C       -7.46051300       0.72482100       1.21765200
C       -6.48927300       0.71737100       2.28314300
C       -5.68394400       0.72350900       3.18249000
O       -8.35405600       1.78530600       1.30638100
C       -7.86190800       0.96316300      -1.20355900
C       -2.01830000      -1.06669900      -1.49438100
28
Properties=species:S:1:pos:R:3 energy=3.4011973816621555 pbc="T T T"
C        4.97878200      -0.82175800      -1.14027800
C        3.76164700      -0.22298900      -0.56376500
N        3.84066800       0.96495000      -0.07717800
N        5.06256100       1.64339000      -0.10940500
C        6.22376900       1.19115400       0.57572400
S        6.25807900      -0.16524600       1.47227000
N        7.39673400       1.99653800       0.44423400