68
Properties=species:S:1:pos:R:3 energy=-0.7271177001310987 pbc="T T T"
C      -10.08869800      -1.21579900       2.76924900
O       -9.21638300      -1.47646800       1.69991000
C       -7.96170200      -0.89965700       1.58929900
C       -7.52798600      -0.03092100       2.55479300
C       -6.26632800       0.52133200       2.40189100
F       -5.84132500       1.37822900       3.35626600
C       -5.48881100       0.19633600       1.31007300
C       -5.94521800      -0.68484300       0.34361900
C       -5.04078300      -0.97371800      -0.79209900
C       -5.81251200      -1.65623400      -1.90068400
O       -6.82196900      -0.78709800      -2.35901200
N       -4.44560300       0.24506800      -1.30710100
C       -3.04076300       0.37259200      -1.31876400
O       -2.34915500      -0.56942200      -0.88432100
C       -2.41067000       1.60330200      -1.83804400
C       -2.85716900       2.81247000      -1.07834800
N       -0.94330500       1.47195200      -1.72622400
C       -0.01157600       1.50178000      -2.81778500
C        1.32859900       1.33298900      -2.22309800
C        2.61361700       1.28164200      -2.78556100
C        3.75013100       1.11435900      -2.03157000
C        3.62701400       0.99119600      -0.66272400
C        4.84698600       0.80736000       0.13581300
N        5.79716600      -0.07274800      -0.22379200
C        6.91674000      -0.24372000       0.49917000
N        7.90655400      -1.18610400       0.09103100
C        9.09312200      -1.34656700       0.88473200
C        8.66201000      -1.78460900       2.26869400
C       10.00914100      -2.38952100       0.30488300
O       10.41733200      -2.06412900      -0.97649700
N        7.08144800       0.49070800       1.61124400
C        6.18719500       1.39262700       2.04696400
C        5.03502500       1.55132000       1.27994900
Cl       3.82411100       2.72081200       1.78915800
C        2.36835100       1.04057900      -0.10384700
C        1.21116000       1.21019900      -0.86359200
C       -0.20271200       1.29489100      -0.53585800
O       -0.69721800       1.22185000       0.63246500
C       -7.18846400      -1.23665600       0.48277500
H      -10.09414500      -0.12130700       3.00209100
H       -9.76551700      -1.71720500       3.70448100
H      -11.10596500      -1.56737000       2.45781700
H       -8.12817800       0.23203900       3.41579100
H       -4.51081600       0.63813000       1.21248900
H       -4.24892100      -1.68670700      -0.45900300
H       -5.13283800      -1.79124700      -2.78423400
H       -6.19202500      -2.63494300      -1.60961000
H       -6.83794800       0.01878600      -1.80048400
H       -5.05102900       0.99869700      -1.65608700
H       -2.68857500       1.73079900      -2.90378200
H       -3.88361500       3.08161300      -1.39475500
H       -2.81558800       2.68277500       0.01855600
H       -2.20366300       3.66518600      -1.41393500
H       -0.09566600       2.43639600      -3.41432400
H       -0.28128500       0.61178400      -3.46377800
H        2.70086000       1.37966400      -3.86665400
H        4.72283500       1.07975600      -2.50179600
H        7.77611900      -1.74304500      -0.75677700
H        9.65759800      -0.40008600       0.94373200
H        7.71168900      -2.31684100       2.24980000
H        9.42328100      -2.43220600       2.75494100
H        8.52470400      -0.88351200       2.91371100
H        9.56908600      -3.39492400       0.30986700
H       10.93264000      -2.43109200       0.94361300
H       10.51986900      -1.09655800      -1.13283300
H        6.30472800       1.98331400       2.92867000
H        2.23020100       0.94619400       0.94724800
H       -7.55518300      -1.92725100      -0.26781000
68
Properties=species:S:1:pos:R:3 energy=-2.4849466505880216 pbc="T T T"
C       -4.32333600      -2.32582400      -1.03398300
C       -3.60162100      -1.57182500       0.06205200
C       -4.24344600      -0.27182800       0.34307900
O       -3.61872500       0.83685600       0.28971300
N       -5.60219300      -0.23472700       0.68620800
C       -6.32157600       0.99982300       0.98058200
C       -6.76254400       1.00211000       2.42603200
O       -7.44512500       2.21161600       2.64130500
C       -7.45578800       1.20398600       0.05319300
C       -7.68058900       2.44249300      -0.52268000
C       -8.72457900       2.63122500      -1.37649700
F       -8.98771300       3.81904300      -1.96481300
C       -9.55584400       1.55061400      -1.65351000
C       -9.33110100       0.32691500      -1.08253000
F      -10.17213400      -0.71120400      -1.38086000
C       -8.27950400       0.14152100      -0.22402800
N       -2.18223500      -1.39018900      -0.27753400
C       -1.65523400      -0.65295600      -1.40534400
C       -0.17802200      -0.76034000      -1.31882400
C        0.81770000      -0.24685100      -2.13708700
C        2.14786400      -0.47771700      -1.85775000
C        2.54451800      -1.23045500      -0.75069800
C        3.95237100      -1.47001800      -0.45989600
N        4.79986200      -0.43596400      -0.53855900
C        6.11707400      -0.54713200      -0.29153900
N        7.00134700       0.54611500      -0.38567800
C        8.40363200       0.36180700      -0.10101300
C        9.18125900       1.64620500      -0.36147800
C        8.74072900       2.73664800       0.58805200
O        8.93345700       2.29938400       1.89315400
C        7.99250000       1.27023100       2.11334900
C        8.52573100       0.06186400       1.39710200
N        6.57647000      -1.75636000       0.04612900
C        5.78541100      -2.83643700       0.14420800
C        4.45115000      -2.70232600      -0.11064000
Cl       3.34925500      -4.09086600      -0.00050300
C        1.53005700      -1.72474600       0.03981500
C        0.18750100      -1.50741400      -0.21869700
C       -1.05929700      -1.89836600       0.42785900
O       -1.11138700      -2.60603700       1.48967400
H       -4.58269100      -3.35942000      -0.71807200
H       -5.28174500      -1.84089900      -1.31206600
H       -3.69722800      -2.43894400      -1.94779600
H       -3.66218000      -2.18652700       0.98319500
H       -6.14576000      -1.14676600       0.73746900
H       -5.58329200       1.82473900       0.87259000
H       -5.82969600       0.96301700       3.04075300
H       -7.40477200       0.13858600       2.59927700
H       -6.83024000       2.95448400       2.81737800
H       -6.99848300       3.26612200      -0.27473100
H      -10.39226300       1.68082600      -2.33068100
H       -8.09416800      -0.81727900       0.23032900
H       -1.94571000       0.41904200      -1.28745000
H       -2.04668500      -1.05233500      -2.36298300
H        0.52150200       0.34753400      -3.01206200
H        2.92479200      -0.08645900      -2.48207200
H        6.66237900       1.51153100      -0.66322200
H        8.82946600      -0.45485900      -0.68821700
H        9.02193100       1.95033200      -1.41693000
H       10.23907200       1.43389300      -0.19132500
H        9.35552000       3.63614800       0.35560200
H        7.66292800       2.91290200       0.42498600
H        7.03263600       1.63450100       1.73806100
H        7.87830600       1.05711600       3.19337400
H        8.05176800      -0.88186800       1.63336700
H        9.62864500       0.02767800       1.63532000
H        6.16854500      -3.81777800       0.41993700
H        1.77152800      -2.31419200       0.91166500
81
Properties=species:S:1:pos:R:3 energy=-0.6931471805599453 pbc="T T T"
C       -1.90246600       4.57039400      -0.92532800
C       -1.85715500       4.11948100       0.51860300
C       -0.90743800       2.96487100       0.67770300
N       -1.44373600       1.69550300       0.31675800
C       -0.69746100       0.57426900       0.68946800
C        0.60327000       0.37227200       0.02594000
O        1.00807400       1.17922000      -0.82237800
N        1.37535200      -0.74949700       0.37044100
C        1.02854800      -1.80619200       1.34645400
C        1.62975200      -3.03070400       0.65135400
C        1.99669600      -4.02866000       1.71415400
C        0.65833800      -3.60593000      -0.35406700
C        2.82781700      -2.45511900       0.00297300
C        4.02979300      -2.98954300      -0.45286400
C        4.95876600      -2.15196400      -1.02832500
O        6.05309700      -2.64106800      -1.44322200
N        4.79297700      -0.84138900      -1.18600900
C        5.78198600       0.02535500      -1.79295200
C        6.72754900       0.57489300      -0.78916400
C        7.90811300      -0.04477100      -0.45792500
C        8.72741100       0.52786300       0.48363400
C        8.40876800       1.71015900       1.11449900
F        9.23421900       2.26957300       2.05121500
C        7.21503500       2.30445400       0.75644500
C        6.37241800       1.75642500      -0.18265100
C        3.64113000      -0.29840700      -0.75469800
C        2.66077400      -1.10553500      -0.16101600
C       -2.85807000       1.59830100       0.23203600
C       -3.35867000       0.19938800       0.28630000
N       -4.78954400       0.06364600       0.19957600
C       -5.34370900       0.41576300      -1.07397500
C       -6.71526300       1.02743600      -0.81495000
C       -5.61896300      -0.81762700      -1.94150200
O       -4.49706400      -1.63857500      -1.89726700
C       -4.45293900      -2.22144100      -0.64690500
C       -5.07944400      -1.35005700       0.42821400
C       -4.47273200      -1.81075700       1.74485600
C       -3.40825800       2.46973300       1.34015000
N       -3.17379300       3.85366400       1.03240400
H       -1.23487200       5.43534200      -1.11991700
H       -2.93327500       4.93225300      -1.20303200
H       -1.56695500       3.76392600      -1.61231400
H       -1.44419500       4.96677500       1.10475200
H       -0.00598100       3.21082500       0.05314800
H       -0.53197600       2.90944500       1.71963500
H       -0.45516100       0.66749500       1.79091000
H       -1.23856500      -0.38257300       0.60277700
H        1.51577500      -1.64782100       2.31072200
H       -0.06530100      -1.93737100       1.38735900
H        1.41586500      -4.97750400       1.62928000
H        3.07589400      -4.26002200       1.62628700
H        1.82108400      -3.63448100       2.73585800
H        0.17707800      -4.50160200       0.09779300
H        1.22942700      -3.96169600      -1.23528800
H       -0.08239100      -2.85843600      -0.70009400
H        4.16623800      -4.05022100      -0.32631100
H        6.33204900      -0.56679900      -2.55005400
H        5.32582500       0.88170100      -2.33002100
H        8.17940200      -0.98255800      -0.94818200
H        9.66944900       0.02388700       0.74152400
H        6.96208900       3.24817600       1.26067100
H        5.42649500       2.26806000      -0.43730900
H        3.44967500       0.77578700      -0.85878700
H       -3.19639600       2.05329400      -0.73164800
H       -3.10486900      -0.20687100       1.30861900
H       -2.91839600      -0.38987200      -0.53718200
H       -4.71086200       1.07454800      -1.68573800
H       -7.48864600       0.24589400      -0.66738400
H       -6.69338600       1.60492700       0.14707000
H       -6.98951900       1.75954500      -1.59525800
H       -6.54038200      -1.32298300      -1.58905200
H       -5.80452600      -0.45089500      -2.95932200
H       -3.42285000      -2.51429800      -0.40522800
H       -5.05587600      -3.15822200      -0.70119500
H       -6.17901700      -1.52620500       0.40677800
H       -4.50129300      -1.05150100       2.52758200
H       -3.43295600      -2.20099200       1.55426200
H       -5.05555400      -2.70879700       2.04516700
H       -4.46141600       2.31775700       1.54916100
H       -2.83020900       2.23219900       2.25608500
H       -3.86469700       4.23445600       0.33618300
72
Properties=species:S:1:pos:R:3 energy=-2.1061962789886555 pbc="T T T"
C       -3.23315900       2.83413500       0.01156400
O       -4.63274100       2.92519400      -0.10340200
C       -5.40300600       1.86187100      -0.53392300
C       -6.78345400       1.98838700      -0.63538100
C       -7.60534600       0.97486300      -1.05469000
F       -8.94443300       1.17794500      -1.12658800
C       -7.01614800      -0.22803300      -1.39014600
C       -5.65301800      -0.39770700      -1.30475200
C       -5.06653300      -1.69068100      -1.66880600
C       -4.36514600      -1.64030900      -3.01044200
O       -3.89602300      -2.92621100      -3.29287800
N       -4.05323700      -2.13169400      -0.69325100
C       -4.14710200      -3.36354300      -0.03534100
O       -5.14212600      -4.09615600      -0.31719300
C       -3.20794100      -3.90341100       0.95190000
N       -2.09894500      -3.00523100       1.28174900
C       -0.86566000      -2.90690100       0.59371500
O       -0.53656500      -3.59870100      -0.40411500
C       -0.06852000      -1.88439600       1.23639300
C        1.19675400      -1.34376700       0.98653500
C        1.72114600      -0.32348300       1.76601500
C        3.03781100       0.20060500       1.45307000
N        3.35139400       0.49532900       0.17977100
C        4.53734500       0.97872900      -0.21111600
N        4.80070700       1.26893400      -1.58646000
C        6.10371400       1.79311000      -1.95859700
C        6.39587800       3.08531800      -1.29119800
C        7.85408600       3.30950600      -0.97703000
O        8.67739200       2.51070200      -1.78122700
C        8.48245300       1.20666300      -1.38744400
C        7.11221300       0.71319000      -1.72405200
N        5.46506700       1.17641900       0.74770500
C        5.20759400       0.89921000       2.03880400
C        3.97308400       0.39610800       2.44400400
Cl       3.64972100       0.03111900       4.12947500
C        0.99937700       0.18915200       2.81888500
C       -0.24038300      -0.33116300       3.07513800
C       -0.77690000      -1.37073900       2.28347100
C       -2.05793400      -2.09651600       2.38803600
C       -3.16744100      -1.07292000       2.28736000
C       -4.85894900       0.64435700      -0.87891400
H       -2.88139500       1.87629200       0.44476600
H       -2.86661800       3.69713900       0.63487400
H       -2.73588100       2.98582400      -0.98527100
H       -7.25871400       2.93657200      -0.37218500
H       -7.65539000      -1.03419800      -1.72226500
H       -5.82001100      -2.51075100      -1.71158400
H       -5.03096300      -1.29672700      -3.80870500
H       -3.46272500      -1.00691000      -2.89541100
H       -3.26940000      -2.89073500      -4.06926000
H       -3.23590000      -1.51440100      -0.49475100
H       -2.84141500      -4.91100900       0.66426300
H       -3.79177500      -4.07211700       1.90154400
H        1.72136400      -1.78216200       0.14860600
H        4.04839200       1.09430600      -2.27192200
H        6.06293900       1.97863300      -3.07009400
H        5.83043800       3.25428800      -0.35152600
H        6.09465200       3.94357200      -1.96211900
H        8.16776400       4.35563900      -1.16338400
H        8.03269900       3.10473100       0.10595800
H        9.27336900       0.57884200      -1.86757300
H        8.64688200       1.10031700      -0.28537700
H        6.78519300       0.00157100      -0.92850400
H        7.20385200       0.08250800      -2.64637100
H        5.93245400       1.04818100       2.82652800
H        1.42610400       1.00100100       3.42558800
H       -0.81983100       0.06040600       3.89799400
H       -2.12658200      -2.64533000       3.37182200
H       -4.14230500      -1.49913000       2.02901300
H       -3.31383100      -0.54750300       3.26877000
H       -2.93263300      -0.27922500       1.55460100
H       -3.78575700       0.54109300      -0.80208200
71
Properties=species:S:1:pos:R:3 energy=-1.3862943611198906 pbc="T T T"
C        5.66866100       2.52782600      -4.76184400
O        5.56140700       1.64793700      -3.81822600
C        5.39496700       0.59895100      -3.06960000
C        5.56582600       0.70836300      -1.67683800
C        5.39137000      -0.38373400      -0.90266100
C        5.54763000      -0.42006900       0.57651500
C        5.86276700       0.89680500       1.20484500
O        7.02544900       1.40058700       0.63844300
N        4.34317500      -0.99578000       1.18690600
C        4.42185500      -2.20643900       1.91347400
O        5.54183800      -2.76618700       2.01088900
C        3.26469900      -2.86482900       2.56966800
C        3.67923100      -3.27101700       3.96237900
N        2.08283800      -2.00565200       2.60885300
C        1.88438200      -0.79864800       3.35543300
C        0.50709800      -0.34585400       3.01255000
C       -0.20923600       0.76002700       3.41615900
C       -1.49491100       0.94936900       2.95432500
C       -2.11839800       0.07410600       2.09140900
C       -3.49376300       0.31578000       1.63342400
N       -3.81139300       0.20225600       0.34639300
C       -5.04566100       0.40461400      -0.14494500
N       -5.34347000       0.27570700      -1.53397900
C       -6.65993100       0.49225400      -2.07549100
C       -7.18683400       1.86574300      -1.82259600
C       -7.85788700       2.50535800      -3.00790900
O       -8.63440600       1.49105300      -3.61075200
C       -7.72966200       0.72943300      -4.35160500
C       -6.65148100       0.10678500      -3.53957300
N       -5.98137200       0.74026700       0.76121700
C       -5.74347400       0.87280700       2.05808300
C       -4.46630300       0.66034800       2.54605700
Cl      -4.13751300       0.82358400       4.26470800
C       -1.40070200      -1.02364000       1.69313100
C       -0.09596900      -1.23008400       2.15184300
C        0.88656700      -2.27939200       1.89140600
O        0.66772800      -3.27652500       1.12896500
C        5.04344200      -1.60091200      -1.50681500
C        4.87933400      -1.69439100      -2.86538400
N        5.05693200      -0.60338100      -3.60881500
H        4.79647500       3.24642600      -4.91742200
H        5.72763500       2.03732900      -5.78948000
H        6.60592300       3.15138800      -4.65326100
H        5.82589600       1.66797800      -1.25229500
H        6.42510600      -1.09150600       0.79459000
H        6.11993600       0.67383700       2.28294200
H        5.02187200       1.62056700       1.14798000
H        7.44159900       1.99348000       1.31565000
H        3.45388200      -0.49740900       1.05971300
H        3.02407700      -3.75156600       1.92600300
H        4.15459500      -2.36124000       4.42917500
H        4.40149800      -4.09468200       3.91445800
H        2.80162900      -3.50555500       4.60522400
H        2.57338900       0.02138600       3.15360100
H        1.96555200      -1.03296200       4.44545200
H        0.18600000       1.50721100       4.08917800
H       -2.04525200       1.83755300       3.28325700
H       -4.55292100       0.01055200      -2.16497700
H       -7.33458700      -0.23939600      -1.58059100
H       -6.37751500       2.49754200      -1.40079700
H       -7.95675000       1.81837200      -1.01737600
H       -7.13450400       2.82607400      -3.77615300
H       -8.49670500       3.33220700      -2.62313200
H       -8.31442300      -0.06494300      -4.85393900
H       -7.34070500       1.41378100      -5.14336600
H       -5.67005300       0.40453900      -4.01317400
H       -6.68864300      -0.99670700      -3.65044100
H       -6.52351300       1.14748900       2.77822200
H       -1.81541000      -1.74873800       1.02486500
H        4.89912400      -2.49140200      -0.89155300
H        4.61196400      -2.61502800      -3.35925600
55
Properties=species:S:1:pos:R:3 energy=-2.4849466505880216 pbc="T T T"
C        3.38860000       2.93364000       1.11062300
N        3.15322600       1.57301900       0.63666200
C        4.31481500       0.76337900       0.41370800
N        5.06313800       0.00440000       0.89318600
C        6.10840200      -0.60881300       0.40055800
C        7.00695700      -1.52502700       0.99304300
C        8.05002700      -2.05979500       0.30507800
C        8.31633500      -1.76352300      -0.99706800
C        7.45058300      -0.85775200      -1.62897500
C        6.40946300      -0.33344400      -0.91721100
S        5.07902200       0.84766500      -1.33259400
C        1.80733100       1.16487400       0.43890200
C        1.05063800       2.01519200      -0.58181800
C       -0.10744500       1.15906500      -1.04522500
N       -0.65981800       0.44113200       0.12358900
C       -1.96132300      -0.03235200      -0.23643700
C       -2.62571700      -0.71934800       0.89958600
O       -1.89949800      -1.80961900       1.30608800
C       -4.05441900      -1.12052200       0.59640100
O       -4.80317900       0.00101900       0.17819500
C       -6.13679300      -0.06907300      -0.16490900
C       -6.88757100      -1.22684700      -0.14181900
C       -8.20458100      -1.27347400      -0.48481000
C       -8.84637700      -0.11459800      -0.88064700
F      -10.16465900      -0.10971800      -1.23436800
C       -8.13639800       1.07409400      -0.92095500
C       -6.80876000       1.08036500      -0.56723300
C        0.21510800      -0.67242400       0.43713500
C        1.65258200      -0.28182300       0.03838300
H        2.47492500       3.42503600       1.43538000
H        4.15241900       2.82969800       1.93354600
H        3.92830400       3.50244800       0.30469700
H        6.87499500      -1.82724400       2.04264000
H        8.71781100      -2.76176500       0.79995400
H        9.12793400      -2.17934700      -1.53220800
H        7.61051100      -0.58160800      -2.66801000
H        1.25947700       1.29979400       1.39606900
H        1.68746600       2.21628300      -1.46881500
H        0.67387700       2.90963200      -0.08627900
H        0.14929600       0.40343700      -1.78635100
H       -0.93068400       1.81672000      -1.44098900
H       -1.91106200      -0.76517300      -1.08012200
H       -2.57921100       0.81481200      -0.62988800
H       -2.69305000      -0.00959900       1.76230500
H       -1.93865700      -1.99105300       2.27953100
H       -4.47436800      -1.60847600       1.49827800
H       -4.05817900      -1.85060500      -0.23957500
H       -6.39890600      -2.14722800       0.16665000
H       -8.81152200      -2.17023900      -0.47305600
H       -8.61906000       1.99934400      -1.22924400
H       -6.27138800       2.00752000      -0.60243600
H        0.16880200      -0.83888500       1.53608400
H       -0.06563200      -1.59796300      -0.07119500
H        1.83012100      -0.45407000      -1.02489600
H        2.32609600      -0.92115800       0.64435800
61
Properties=species:S:1:pos:R:3 energy=1.791759469228055 pbc="T T T"
C        5.42037500      -0.96943300      -1.28493700
C        4.80732700      -1.48330700       0.00489200
C        5.73203800      -1.14851800       1.14749100
O        4.68218600      -2.87534500      -0.08279700
C        3.46074700      -0.87821700       0.12466100
C        3.17225300       0.09507400       1.01913900
C        1.90570900       0.67275900       1.15500000
F        1.64328000       1.64537600       2.05379400
C        0.94525900       0.17577600       0.29646300
C        1.18301100      -0.79690900      -0.61691600
C        2.46283600      -1.33417100      -0.70545600
C       -0.04632100      -1.09219300      -1.36406900
O       -0.12802800      -1.94155800      -2.26364600
N       -1.03030500      -0.24077100      -0.84332300
C       -2.34951200      -0.17825300      -1.45013900
C       -3.24645200      -1.32496900      -1.13489100
C       -4.37524400      -1.52154400      -1.95844100
C       -5.23579900      -2.57663100      -1.76000000
C       -5.00926400      -3.46404200      -0.74550000
Cl      -6.06313400      -4.83359900      -0.42560200
C       -3.87705500      -3.22977900       0.04547600
N       -3.07464500      -2.21057000      -0.17437600
C       -0.52064500       0.60297000       0.24840400
O       -0.70674400       1.79895400      -0.21036700
C       -0.47634200       3.02319000       0.06585700
C       -0.90457100       3.85185000      -1.18560100
O       -2.19022200       3.67301900      -1.66286300
C        0.14092100       4.51440000      -2.01289000
C       -0.51210400       5.33186200      -0.96009700
C       -1.14735500       0.09150000       1.47515900
C       -1.94159800       0.78410500       2.33368800
C       -2.41567800       0.14882800       3.48293400
C       -2.11675100      -1.16535300       3.79556700
Cl      -2.72987700      -1.96099300       5.22139500
C       -1.30882800      -1.87744700       2.92783500
C       -0.83882300      -1.25502000       1.79477900
H        5.57472500       0.13224600      -1.16201000
H        6.38730000      -1.44722200      -1.49770300
H        4.64010700      -1.10433700      -2.05881400
H        6.40556800      -2.01321000       1.33842700
H        6.36263300      -0.24212200       0.94109500
H        5.17723000      -0.98151200       2.10952400
H        4.34520400      -3.12297400      -0.98397900
H        3.93352700       0.48458100       1.69196300
H        2.63076100      -2.12132100      -1.45007100
H       -2.20318600      -0.15103800      -2.54526500
H       -2.86510700       0.77534900      -1.17748700
H       -4.56212300      -0.81864400      -2.75976100
H       -6.11537300      -2.72973000      -2.41922800
H       -3.74114900      -3.96777500       0.83752800
H        0.56822800       3.38673000       0.24007300
H       -1.13191700       3.46819600       0.84850100
H       -2.18310100       3.99705500      -2.61139500
H        0.00101900       4.71817000      -3.07956600
H        1.20173200       4.19114200      -1.76404100
H       -1.22069200       6.10246000      -1.37567000
H       -0.01756400       5.62100100      -0.02923900
H       -2.18293000       1.81040400       2.11385500
H       -3.03493900       0.71624300       4.14680000
H       -1.06685900      -2.91673200       3.15271800
H       -0.21374000      -1.83800000       1.14312400
83
Properties=species:S:1:pos:R:3 energy=-1.7915594892253888 pbc="T T T"
C       -1.46962300       2.73052900      -0.99435400
C       -0.87477900       1.39663800      -1.34667800
C       -1.79734000       0.32056800      -0.94065900
O       -1.42080400      -0.56252500      -0.14858900
N       -3.10005700       0.29557400      -1.44981000
C       -4.09311700      -0.70681200      -1.12298900
C       -4.45331500      -1.55703600      -2.31711100
O       -4.97596000      -0.84941000      -3.37008600
C       -5.28502200      -0.01591300      -0.57608200
C       -5.13295700       0.99307500       0.36540200
C       -6.21443500       1.65582200       0.88994700
F       -6.08938600       2.63793100       1.80476500
C       -7.51320900       1.33035100       0.48718900
C       -7.70412900       0.35141100      -0.42774700
O       -8.91253700      -0.03463500      -0.87116200
C      -10.15990300       0.39429700      -0.51582700
C      -10.55268400       0.08742400       0.89043400
N      -10.55198800      -1.34563700       1.15899600
C      -11.59110600      -2.04745500       0.45307900
C      -10.71142700      -1.58480700       2.57521200
C       -6.56196700      -0.31104300      -0.94823300
N        0.40765400       1.22854900      -0.63674700
C        0.61678800       1.28475600       0.78537700
C        2.06787000       1.12478400       0.95887900
C        2.79351200       1.13103500       2.15173000
C        4.16044400       0.95385500       2.08839000
C        4.85987800       0.77017800       0.91735000
C        6.30654900       0.59777900       0.84821300
N        6.86670600      -0.37711200       0.10027000
C        8.20088200      -0.51768300       0.03682000
N        8.69268000      -1.59162300      -0.78640700
C       10.14486400      -1.74447900      -0.86285900
C       10.74029500      -0.50100700      -1.44591000
C       11.94043100       0.02330900      -0.75135900
O       12.71473500      -0.98821200      -0.17246300
C       11.95374400      -1.49186000       0.87941600
C       10.69231100      -2.14692400       0.45713300
N        9.03839300       0.29105800       0.70338500
C        8.51699200       1.27052200       1.45639700
C        7.14168500       1.43428600       1.53654000
Cl       6.42972000       2.71089900       2.50625600
C        4.09522600       0.77008200      -0.25547800
C        2.72310800       0.94436600      -0.23853500
C        1.67437700       1.00900000      -1.24129100
O        1.84643000       0.88829900      -2.49040700
H       -1.79995600       2.66209000       0.07444600
H       -0.74510500       3.55994100      -1.14863100
H       -2.32532600       2.90274800      -1.68148900
H       -0.66074500       1.33862600      -2.45706200
H       -3.39502900       1.05152600      -2.11881700
H       -3.62278000      -1.39230300      -0.38941500
H       -5.14844200      -2.34632700      -1.96715300
H       -3.51867000      -2.12303700      -2.60805300
H       -4.54906900      -1.13190200      -4.22919100
H       -4.11330300       1.23301100       0.66727200
H       -8.34664300       1.89197400       0.89980500
H      -10.88890400      -0.04503100      -1.25385900
H      -10.18380000       1.52404400      -0.65656100
H       -9.92419400       0.54691900       1.64709900
H      -11.58668500       0.50889500       1.06651400
H      -11.95295600      -2.89281000       1.10150700
H      -11.21187800      -2.53884800      -0.47277100
H      -12.47681000      -1.40500300       0.25793800
H      -10.42562400      -2.64046900       2.76978400
H      -11.74465200      -1.44941400       2.91672500
H      -10.05136800      -0.93493400       3.18795600
H       -6.72392900      -1.09497100      -1.68393700
H        0.03546600       0.47141300       1.25952300