33
Properties=species:S:1:pos:R:3 energy=-1.098712293668443 pbc="T T T"
C        4.68026700       2.17972600       0.34916100
O        3.47674700       1.78013200      -0.24575400
C        2.80032700       0.65608300       0.06908300
C        3.24466700      -0.21176000       1.02923700
C        2.48422200      -1.35956100       1.29480500
C        1.31878200      -1.60706800       0.60648200
N        0.43921100      -2.61988900       0.68054700
C       -0.56067500      -2.39671000      -0.22727700
C       -0.32148300      -1.21882800      -0.89875900
C       -1.17539000      -0.64161400      -1.93855000
C       -2.02150700       0.50216900      -1.43058800
N       -2.90376200       0.10669000      -0.36785100
C       -3.75505300       1.08250200       0.20733100
C       -4.69007700       0.71343100       1.31741200
O       -3.74318300       2.27546900      -0.20077400
C        0.85648000      -0.73201800      -0.37106100
C        1.60598700       0.38945500      -0.62603300
H        5.28800800       2.63604000      -0.50384300
H        5.24558700       1.35147400       0.79538300
H        4.52764600       3.04233900       1.04392600
H        4.13315300      -0.06711100       1.59143700
H        2.85850100      -2.02572300       2.05795900
H        0.49086800      -3.45217200       1.31977100
H       -1.38456700      -3.08696400      -0.34434700
H       -0.49849300      -0.18350000      -2.72185200
H       -1.80812800      -1.37670600      -2.46620700
H       -1.39183900       1.33130200      -1.06276900
H       -2.62853900       0.86937800      -2.28128200
H       -2.95206400      -0.86894300       0.00576100
H       -4.77307600      -0.39072300       1.35998000
H       -4.39533400       1.17388600       2.27950800
H       -5.69784300       1.08814100       1.05556200
H        1.25056100       1.06107400      -1.37639900
75
Properties=species:S:1:pos:R:3 energy=0.15443635330441896 pbc="T T T"
C        2.24957200      -2.94964500       3.22996800
C        2.44524000      -1.78234100       2.26629800
C        1.16391200      -1.66345700       1.47659700
N        1.21344300      -0.76342400       0.36965800
C        0.50632200       0.44754600       0.48415200
C       -0.94802100       0.44747200       0.48346800
O       -1.49497300       1.61877200       0.64684200
N       -1.83664800      -0.64785900       0.32855500
C       -1.54716900      -2.03424800       0.00510000
C       -2.78266500      -2.46997000      -0.73043400
C       -3.07733700      -3.93709300      -0.55741500
C       -2.58924100      -2.10133400      -2.19068800
C       -3.84313200      -1.61169000      -0.15509900
N       -5.19601100      -1.68839000      -0.13099900
N       -5.92354700      -0.76219500       0.45306900
C       -5.43620300       0.32635700       1.07065100
C       -6.31650900       1.35122100       1.72384600
C       -6.73159800       2.36591700       0.73408000
C       -6.15329300       3.61121300       0.71430300
C       -6.53690200       4.57813000      -0.21702100
C       -7.51248100       4.30989100      -1.14876500
F       -7.91139400       5.24259100      -2.07756200
C       -8.09734400       3.06219600      -1.13509800
C       -7.70539100       2.10412700      -0.19928600
F       -8.28987000       0.87582800      -0.19508200
C       -4.06192700       0.44530500       1.07076900
C       -3.27651000      -0.52507400       0.45793600
C        2.54063800      -0.61612400      -0.20728100
C        3.20989400       0.64474400       0.18930400
N        4.55810600       0.82395600      -0.39834100
C        5.80297800       0.46875600       0.21008700
C        6.84687900       0.96954600      -0.70198000
C        8.24201600       0.95821800      -0.61619200
F        8.86353100       0.43054300       0.48494200
C        9.01609700       1.47421000      -1.62995800
C        8.44450600       2.01896400      -2.76243700
C        7.06915000       2.02315000      -2.83135500
C        6.25620500       1.50502800      -1.81384200
C        4.81787100       1.42632300      -1.65499800
O        3.94194100       1.82026200      -2.48105000
C        3.29372300      -1.87577500       0.02662000
N        3.56013400      -2.15003200       1.41381700
H        1.40955800      -2.78689000       3.91109600
H        3.20491000      -3.12534200       3.78203200
H        2.11885000      -3.85485500       2.57817200
H        2.62709500      -0.89037900       2.87001400
H        0.34614900      -1.46175200       2.17985100
H        1.00469700      -2.69748600       1.04411500
H        0.89295900       1.10393000       1.32964000
H        0.80148500       1.07014800      -0.42974200
H       -1.49131600      -2.63629700       0.92626400
H       -0.64207900      -2.11559800      -0.64585900
H       -2.58219600      -4.50556900      -1.34478400
H       -2.79829300      -4.22696800       0.47366800
H       -4.17660400      -4.06443900      -0.64587900
H       -2.67404800      -0.98695300      -2.23744700
H       -3.42011700      -2.48441900      -2.82949800
H       -1.59215300      -2.36016200      -2.55218600
H       -5.76709900       1.86617500       2.53314500
H       -7.20147700       0.88020400       2.21120600
H       -5.37246200       3.86795800       1.43831300
H       -6.08635000       5.56687000      -0.24261300
H       -8.86783200       2.86285800      -1.87750100
H       -3.61683700       1.30863800       1.55823100
H        2.35283300      -0.54889900      -1.31924700
H        3.37030200       0.73526700       1.29508300
H        2.68156400       1.57539600      -0.08956000
H        5.86420300      -0.63663900       0.33726300
H        5.93043700       0.97650900       1.21073400
H       10.10234100       1.43847000      -1.50835800
H        9.04646100       2.42205200      -3.55464800
H        6.53842600       2.42926500      -3.67943200
H        4.20090000      -2.01242700      -0.55785500
H        2.60948500      -2.71759300      -0.31868800
H        4.41221300      -1.76268800       1.80923100
63
Properties=species:S:1:pos:R:3 energy=-3.101092789211817 pbc="T T T"
O        4.55799300      -2.53474100      -1.74812000
C        5.14895600      -1.51536700      -1.26887400
N        6.47105400      -1.47132200      -1.04362100
C        6.71494000      -0.24477900      -0.54158900
C        7.90652600       0.36261800      -0.12461300
C        7.91317200       1.65068300       0.36212500
C        6.71612400       2.34373100       0.43447700
C        5.54847100       1.77127500       0.03467800
C        5.53765700       0.46060800      -0.46075700
N        4.56252000      -0.34280200      -0.91845600
C        3.19363500       0.03800100      -0.99409000
C        2.35042500      -0.97905900      -1.72808500
C        0.91626600      -0.56931300      -1.83492500
N        0.35489200      -0.01829700      -0.63111600
C       -0.35354300      -0.96954000       0.15083200
C       -1.02454800      -0.39091700       1.35232600
C       -2.05207300       0.67664500       1.02116600
C       -3.13281000       0.10431700       0.15702000
C       -3.82221600      -1.01372600       0.85261000
C       -4.19304000      -2.17059600       0.16589600
C       -4.83802800      -3.22056900       0.79269900
C       -5.14154400      -3.16620800       2.12555200
F       -5.77532000      -4.18356600       2.76917200
C       -4.78251200      -2.02349700       2.83279900
C       -4.13923600      -0.98376000       2.19401300
C       -4.14854700       1.07721100      -0.26082100
C       -4.49417200       2.14841600       0.54224600
C       -5.46341300       3.06698000       0.13225400
C       -6.07981600       2.89756600      -1.09045000
F       -7.01619200       3.81043000      -1.45416100
C       -5.72317500       1.82380600      -1.87863000
C       -4.76779700       0.90562800      -1.49073800
C        1.20126300       0.88871100       0.05035200
C        2.51943400       0.18793200       0.35895300
H        7.19034400      -2.20543400      -1.20775900
H        8.83048600      -0.18940000      -0.18680500
H        8.83181300       2.15514000       0.69683400
H        6.67729500       3.36694400       0.81362300
H        4.58468500       2.26563600       0.06761000
H        3.04215000       1.00278800      -1.54603600
H        2.41208800      -1.91532100      -1.13438000
H        2.71574300      -1.19984900      -2.74741700
H        0.77659200       0.17343000      -2.64399100
H        0.31969900      -1.46278300      -2.10776800
H       -1.04849600      -1.55616200      -0.47838200
H        0.40461900      -1.69970600       0.54277100
H       -0.30000100      -0.00448200       2.08343900
H       -1.63318700      -1.20557000       1.85878200
H       -1.54042900       1.47895100       0.45495200
H       -2.43809500       1.04773800       1.99980300
H       -2.64139400      -0.33247900      -0.74612800
H       -3.96143700      -2.23941500      -0.90041000
H       -5.10181800      -4.09385300       0.20998300
H       -5.02404400      -1.97194700       3.90678500
H       -3.88698700      -0.12560300       2.79732200
H       -3.99114700       2.25244400       1.49654600
H       -5.72596700       3.89914600       0.76619200
H       -6.24709100       1.74352200      -2.83544200
H       -4.50197100       0.06957600      -2.12264200
H        1.46910800       1.71721800      -0.65388600
H        0.74820200       1.25607300       0.96689000
H        2.25390600      -0.85595100       0.68361200
H        3.11998800       0.69557900       1.10577700
81
Properties=species:S:1:pos:R:3 energy=-0.7620686260263672 pbc="T T T"
C       -3.90133300       4.31161500      -2.17665100
C       -4.17979800       3.02165800      -1.38976200
C       -3.13135300       2.84750000      -0.34266100
N       -2.03135400       1.99861800      -0.76562600
C       -1.10206200       1.91297100       0.30117200
C        0.14356800       1.19083500       0.03476100
O        0.34306100       0.69575800      -1.09760700
N        1.15823500       1.02061400       1.01701300
C        1.12293700       1.51000500       2.37538600
C        2.48982800       1.29479900       2.95235300
C        3.21184700       2.56825000       3.25791000
C        2.36128700       0.47996100       4.24158400
C        3.19555000       0.47977600       1.93053900
N        4.43749600      -0.06783700       2.01495000
C        4.89632200      -0.77936800       0.97112500
C        4.17085400      -0.97812200      -0.17213700
C        4.71850600      -1.76908800      -1.30816600
O        4.42208400      -1.11696600      -2.52583000
C        6.21318200      -1.78590500      -1.24793000
C        6.94522900      -0.63488700      -1.55043500
C        8.33213300      -0.62537800      -1.50611500
C        9.03040400      -1.75651100      -1.16064100
F       10.39362200      -1.73855800      -1.11910200
C        8.32347300      -2.91295400      -0.85552600
C        6.93386500      -2.90182800      -0.90571000
C        2.90582000      -0.40722700      -0.23084200
C        2.40042000       0.33424900       0.82873000
C       -2.56237100       0.74449200      -1.24857500
C       -3.59561700       0.22661600      -0.29682300
N       -4.16925100      -1.04289500      -0.71673700
C       -5.23216400      -1.44864500       0.21345000
C       -6.52428000      -0.71958900      -0.06895900
C       -4.81185200      -1.31490100       1.64110100
O       -3.60551200      -1.97452500       1.79322100
C       -3.32140200      -2.84293600       0.75056700
C       -3.18485600      -2.13528900      -0.59339500
C       -3.58416500      -3.15923600      -1.65132500
C       -3.24531500       1.10168600      -2.56474000
N       -4.34684100       1.98161100      -2.32330700
H       -3.12734400       4.15548900      -2.94167700
H       -4.85686100       4.65422100      -2.64141500
H       -3.62859000       5.10018600      -1.43582400
H       -5.14670900       3.20324500      -0.87383300
H       -3.48937900       2.48141100       0.63649200
H       -2.68411100       3.85225300      -0.14051000
H       -0.87262900       2.90815900       0.76604000
H       -1.61014200       1.35496200       1.14441200
H        0.34631700       0.96669800       2.95387400
H        0.87929600       2.59662700       2.38711000
H        3.10696500       2.80596100       4.33441400
H        2.77783300       3.37743500       2.65992400
H        4.29484800       2.49510200       2.96370900
H        2.66950800      -0.56987200       4.03657600
H        3.07527200       0.85400600       5.01145600
H        1.30833400       0.52544400       4.58608400
H        5.89580800      -1.22929500       1.02073700
H        4.37079500      -2.82014500      -1.32022900
H        4.66716000      -1.73283000      -3.24649100
H        6.44086500       0.26494900      -1.82365800
H        8.91343300       0.27595600      -1.74242600
H        8.87335900      -3.80051900      -0.58464500
H        6.42718200      -3.81652900      -0.66313400
H        2.32303900      -0.54833500      -1.11092600
H       -1.78508900       0.03553700      -1.46511400
H       -3.12107500       0.05587800       0.68874400
H       -4.45647600       0.90374200      -0.17238900
H       -5.43323200      -2.51666300       0.00182200
H       -7.35223200      -1.37430000       0.32170300
H       -6.55950200       0.28354400       0.37573200
H       -6.66451500      -0.71725000      -1.18419600
H       -4.69243700      -0.25314600       1.95137800
H       -5.63034600      -1.74644100       2.26214100
H       -2.29842700      -3.25936900       0.98917800
H       -3.97488900      -3.72947100       0.71097200
H       -2.15633400      -1.79458100      -0.72129600
H       -2.74864000      -3.85449400      -1.86919500
H       -3.83432600      -2.64314600      -2.60333400
H       -4.49002400      -3.71680500      -1.34154400
H       -2.49722700       1.48098000      -3.28222100
H       -3.64107800       0.15357900      -2.97692500
H       -5.23859500       1.42493800      -2.16678100
76
Properties=species:S:1:pos:R:3 energy=-0.2876820724517809 pbc="T T T"
C        1.90136500      -2.78907800      -2.88090200
C        1.56715100      -2.06145000      -1.58385400
C        1.01622100      -0.68967100      -1.85744200
N        1.29651200       0.24444500      -0.80890600
C        0.48426500       1.39076400      -0.73263000
C       -0.88172200       1.27520100      -0.22458600
O       -1.60707000       2.36285500      -0.26109800
N       -1.50247400       0.14443900       0.30005400
C       -0.93480900      -1.17113900       0.56591500
C       -1.72264800      -1.66384700       1.76953200
C       -1.86841000      -3.15476700       1.73808200
C       -0.97448300      -1.27134400       3.00869600
C       -3.01652100      -0.95375600       1.59968400
N       -4.24569100      -1.15997600       2.12872000
C       -5.31818900      -0.39896200       1.84749000
C       -5.23225500       0.67356100       0.97486400
C       -6.41392600       1.53354800       0.65744900
C       -7.23816800       0.96636100      -0.43001300
C       -6.96771600       1.24841800      -1.74641900
C       -7.73966100       0.71877400      -2.78354100
C       -8.78612200      -0.09685700      -2.49190100
F       -9.52390800      -0.60118000      -3.52706100
C       -9.08367500      -0.39899600      -1.18440200
C       -8.30602800       0.13599500      -0.16448500
C       -3.98685800       0.90096600       0.42445200
C       -2.88803500       0.10288700       0.72756600
C        2.70415500       0.48720200      -0.71200100
C        3.14152700       0.85130500       0.66767300
N        4.57524500       1.08668000       0.78461300
C        5.25831900       2.33606000       0.52792600
C        6.70137500       2.08715600       0.70130300
C        7.79030300       2.95189300       0.54300300
C        9.06683800       2.49671000       0.78030100
C        9.27458800       1.17157400       1.17912500
C        8.17421100       0.35787100       1.32142000
C        6.88683100       0.78351600       1.09138400
C        5.57925100       0.14673800       1.15097600
O        5.36359200      -1.05834600       1.48013900
C        3.45003200      -0.66916200      -1.30673900
N        2.85814500      -1.93675700      -0.88445000
H        2.69617000      -3.55205100      -2.65576200
H        2.23770400      -2.07095900      -3.66221100
H        1.03841400      -3.34259400      -3.28579300
H        0.92924500      -2.71523000      -0.99994200
H        1.49980100      -0.27102500      -2.81621300
H       -0.07018400      -0.74697500      -2.04895400
H        0.99495800       2.14292800      -0.04168800
H        0.44961100       1.96058000      -1.71348300
H        0.12922200      -1.03382600       0.83535300
H       -1.13984800      -1.87903500      -0.23728600
H       -2.33077800      -3.48150400       0.78625500
H       -2.40381800      -3.48635600       2.63243400
H       -0.84005900      -3.58455900       1.77410800
H       -1.47280400      -1.76349600       3.88099200
H        0.08046800      -1.59032000       2.89213600
H       -1.08343700      -0.17575600       3.17309600
H       -6.29464700      -0.61615300       2.30953600
H       -7.09226700       1.61776800       1.55288500
H       -6.10693400       2.58411400       0.44647200
H       -6.14952400       1.88963600      -2.02412900
H       -7.51880900       0.94637900      -3.81800600
H       -9.92131500      -1.04807800      -0.99999500
H       -8.58838600      -0.13919800       0.85899800
H       -3.89400900       1.74022900      -0.26604400
H        2.90828000       1.40666600      -1.34868500
H        2.61292800       1.71857800       1.08778500
H        2.84605500      -0.01126200       1.33934800
H        5.09731900       2.64535800      -0.54732100
H        4.88769700       3.13525000       1.20529800
H        7.62804400       3.98496400       0.23270700
H        9.93242200       3.13657300       0.66789700
H       10.29103400       0.86560600       1.35266600
H        8.33039800      -0.66030800       1.62701400
H        4.50741200      -0.67965300      -1.01099800
H        3.45213300      -0.61016400      -2.43876900
H        3.50594800      -2.69575700      -1.12963900
40
Properties=species:S:1:pos:R:3 energy=-0.18632957819149348 pbc="T T T"
C        4.99728100      -2.08817200      -1.07928300
C        4.78947700      -0.80699100      -0.31514400
C        3.41699500      -0.27309100      -0.63336200
O        2.67147000      -0.88271900      -1.41538700
N        2.95788200       0.93673400      -0.04153100
C        1.66783800       1.49504300      -0.30228500
C        0.52277300       0.59915400       0.07277400
C       -0.77160600       1.30967600      -0.25417700
C       -0.80493800       2.59113900       0.54974000
C       -2.27006100       2.85013400       0.66690200
C       -2.84069500       1.45865700       0.74979300
C       -4.04153200       1.02115500       1.26172000
C       -4.38088000      -0.31263400       1.24110500
C       -3.46151900      -1.20627400       0.68136600
C       -2.26319600      -0.77363400       0.16999600
C       -1.96480700       0.56546500       0.21086700
C       -1.52136200      -1.97610400      -0.34747300
C       -2.58938500      -3.05144600      -0.30463200
O       -3.58553300      -2.57275700       0.55374200
H        4.00845100      -2.47888500      -1.43797900
H        5.71285200      -1.96136100      -1.91502800
H        5.40729700      -2.86266700      -0.41455800
H        4.81393800      -1.04665000       0.78655400
H        5.57308100      -0.06869000      -0.52477100
H        3.62457500       1.40906600       0.60843600
H        1.56237600       2.45591300       0.23170100
H        1.54310700       1.75170800      -1.39392300
H        0.58580800      -0.36599900      -0.49780300
H        0.54777200       0.31530000       1.13712400
H       -0.87468000       1.52946700      -1.31863100
H       -0.38711600       2.43979400       1.55565200
H       -0.30791500       3.41117900       0.00519000
H       -2.54362200       3.44765300       1.55122000
H       -2.67515000       3.34301300      -0.26039800
H       -4.73675700       1.75428000       1.69282100
H       -5.31905600      -0.67010600       1.63892200
H       -1.17283400      -1.84086900      -1.37392700
H       -0.70252000      -2.21298300       0.34345400
H       -2.16850300      -3.99507800       0.11058900
H       -3.01930500      -3.23742000      -1.31344200
80
Properties=species:S:1:pos:R:3 energy=-2.319426110190072 pbc="T T T"
C       -2.18088900      -3.36133500       1.36245200
C       -2.40230200      -3.10715600      -0.09729800
C       -1.43502800      -2.20951700      -0.76316600
N       -1.57919800      -0.82871100      -0.32402700
C       -0.76065700       0.04704500      -1.06207900
C        0.67758300       0.05247000      -0.84853700
O        1.31150800       0.81930800      -1.69357100
N        1.48033300      -0.60488400       0.08548900
C        1.09402400      -1.20382900       1.35730500
C        2.16940200      -2.18647700       1.66122800
C        1.90712100      -3.59462000       1.23014900
C        2.46115800      -2.12473700       3.16695400
C        3.33472000      -1.65739900       0.90937100
N        4.66093100      -1.96607600       1.01062200
C        5.56272100      -1.37852300       0.21968200
C        5.20198400      -0.44065000      -0.72756900
C        6.21270200       0.17848800      -1.62663900
C        6.91417600       1.33483700      -1.06283800
C        6.42780300       2.60453100      -1.27313000
C        7.08063600       3.72432100      -0.76075600
C        8.24015100       3.58443000      -0.02322400
F        8.86772600       4.67952400       0.46555400
C        8.72788300       2.32859500       0.18978900
C        8.08532900       1.21952700      -0.31482200
C        3.86962300      -0.11776500      -0.84032200
C        2.91710800      -0.73255200      -0.01177900
C       -2.93425700      -0.44416300      -0.13666000
C       -3.34754300       0.88961900      -0.70477000
N       -4.75639300       1.04670600      -0.40681500
C       -5.39137200       2.06814700      -1.20086700
C       -5.34679300       1.88173100      -2.66902900
C       -5.01149800       3.48012500      -0.82348700
O       -5.59010600       3.67378700       0.45753200
C       -4.85733200       2.85554300       1.30180200
C       -4.97227300       1.40298600       0.98061700
C       -6.30270400       0.80709700       1.41571100
C       -3.94145200      -1.42318600      -0.75862100
N       -3.79241000      -2.75050200      -0.26777600
H       -2.59295600      -2.53199000       1.96958000
H       -1.14015700      -3.58307300       1.62847300
H       -2.85715400      -4.23766900       1.61996400
H       -2.30782800      -4.11354400      -0.63145400
H       -1.71556700      -2.18538800      -1.85371400
H       -0.42269900      -2.59254500      -0.65127000
H       -1.10941500       1.09322200      -0.88795400
H       -0.96475700      -0.11666800      -2.16249300
H        1.20116700      -0.32835000       2.08988300
H        0.07932700      -1.54230100       1.44068300
H        2.88474700      -4.13714300       1.30878900
H        1.17073700      -4.11813900       1.84627100
H        1.58744700      -3.57928400       0.17516700
H        1.51195200      -2.14731200       3.70282600
H        3.16498600      -2.92143700       3.43367100
H        2.94990900      -1.13181500       3.32420100
H        6.62997600      -1.60413600       0.27775300
H        5.76226900       0.41886000      -2.62755000
H        7.01327300      -0.58102700      -1.87508100
H        5.52391300       2.75035500      -1.84529200
H        6.65647000       4.69745300      -0.95704600
H        9.63462400       2.21371400       0.76451500
H        8.47998000       0.23341900      -0.13708000
H        3.55953100       0.61244100      -1.57069800
H       -3.14601800      -0.45883100       0.94001100
H       -3.06543700       1.02373600      -1.74329600
H       -2.86478700       1.73969700      -0.12278100
H       -6.49287300       1.99650400      -0.92320100
H       -6.24929400       1.31530100      -3.05262400
H       -5.45234400       2.88448300      -3.18047200
H       -4.49256400       1.37719500      -3.09978800
H       -3.94768400       3.69241100      -0.84433500
H       -5.59549600       4.14564700      -1.52353500
H       -3.78947100       3.14825200       1.14702200
H       -5.15923500       2.97900400       2.36408900
H       -4.21950800       0.89133400       1.62877400
H       -7.11222900       1.13099000       0.77243300
H       -6.49496600       1.00219600       2.49664000
H       -6.18710600      -0.29426100       1.34081500
H       -3.78748400      -1.32614700      -1.86939600
H       -4.94123700      -0.98012000      -0.58279500
H       -4.30445700      -3.38176800      -0.92230100
61
Properties=species:S:1:pos:R:3 energy=-2.4849466505880216 pbc="T T T"
C       -6.19787000       0.19509000       0.98548300
O       -5.08154600       0.15490800       0.12582600
C       -5.28133100       0.27178200      -1.24929300
C       -6.57370300       0.42562800      -1.74507800
C       -6.82994800       0.54528100      -3.08401500
N       -8.16459400       0.70161000      -3.57001800
C       -5.75956600       0.51063000      -3.96254100
Cl      -6.08462900       0.66289600      -5.68188800
C       -4.48157200       0.36050800      -3.49738800
C       -4.24162900       0.23969500      -2.12269900
C       -2.85886100       0.08139500      -1.73091900
O       -1.95139600       0.06776200      -2.63950200
N       -2.36891000      -0.06452600      -0.42509000
C       -0.94337400      -0.21426900      -0.18561200
C       -0.62912500      -1.54812000       0.45760300
C        0.84556600      -1.75401700       0.53615300
N        1.63381300      -0.57922100       0.50198000
C        2.77234200      -0.81466200       1.41130700
C        3.71017100      -1.87752900       0.85743100
C        4.21915000      -1.37887600      -0.45713900
O        4.92768300      -0.20155400      -0.44771800
C        6.13788200       0.03254700       0.13700200
C        6.67102200       1.33972400       0.06448000
C        7.86828800       1.64903600       0.61829100
C        8.65469900       0.73182300       1.28773600
F        9.84441200       1.08092000       1.82809200
C        8.14099200      -0.54193100       1.36053400
C        6.91477000      -0.89154400       0.80167200
C        1.07083300       0.65369600       0.88964600
C       -0.40501900       0.83851500       0.72755900
O       -0.96196200       0.66202800       2.00064100
C       -1.63232500       1.81452100       2.40057900
H       -6.77789100       1.12914100       0.80561300
H       -6.87114200      -0.67683000       0.73876500
H       -5.92267900       0.08095700       2.04443500
H       -7.37789700       0.44660500      -1.02021500
H       -8.27835400       1.10407500      -4.52526400
H       -8.97629200       0.41726100      -2.97508000
H       -3.65246400       0.33673800      -4.22677900
H       -2.99872500      -0.07077900       0.40105900
H       -0.38743900      -0.17398100      -1.13772500
H       -1.17133400      -2.33660600      -0.10019800
H       -1.08969100      -1.52896400       1.48353800
H        1.11584200      -2.33962000      -0.39781000
H        1.12784600      -2.48117000       1.35597300
H        2.44564300      -1.05792100       2.42558000
H        3.33976500       0.13794700       1.42890500
H        3.18215300      -2.84972300       0.73900000
H        4.49943300      -1.98817200       1.59953500
H        3.32370300      -1.21875300      -1.14607700
H        4.85163100      -2.20794600      -0.89999400
H        6.07904100       2.10076700      -0.45832800
H        8.24603900       2.65956600       0.54478200
H        8.69567400      -1.31886900       1.86831000
H        6.57453600      -1.93136600       0.86793000
H        1.54628600       1.44784900       0.22545500
H        1.39159500       0.98742600       1.91566300
H       -0.63392400       1.85845800       0.33754100
H       -0.86120300       2.62938400       2.40559500
H       -2.48043900       2.01868600       1.75080500
H       -1.90397700       1.67209200       3.48328600
44
Properties=species:S:1:pos:R:3 energy=0.7807000775678068 pbc="T T T"
C       -5.48734300      -0.49900000      -0.42869900
C       -4.06413800      -0.06011600      -0.26458800
C       -4.04194400       1.13972400       0.69110800
O       -3.50873200       0.29174900      -1.49567800
P       -2.16581200      -0.67711900      -1.78464800
O       -2.48981500      -1.96400000      -2.46185100
O       -1.04972300       0.23582600      -2.69758600
C        0.16491400      -0.42559300      -2.82604100
C        0.51237000      -1.14631000      -1.55623500
O        1.85087900      -1.19853800      -1.27783200
C        2.05664400      -1.03031000       0.05785100
N        3.11614700      -0.08955300       0.26502500
C        3.30230400       0.95586300      -0.58787200
C        4.31956500       1.87165600      -0.40165000
C        5.13953400       1.67725400       0.69075700
O        6.08102600       2.48667300       0.90167200
N        4.93912500       0.62639800       1.53357900
C        3.93581400      -0.24478100       1.31751800
O        3.80749800      -1.20277100       2.14527800
C        0.77711900      -0.67349100       0.72599000
C        0.79725600       0.42940300       1.72744900
C       -0.21744100      -0.50240900       2.38556600
O        0.29085700      -1.56068600       1.66001800
C       -0.14097400      -0.35863700      -0.41996500
O       -1.41108800      -0.92721300      -0.26605500
H       -5.60508400      -1.58025600      -0.54331800
H       -6.08934500      -0.18976900       0.46897900
H       -5.94004900       0.05835600      -1.28538100
H       -3.49604800      -0.88320700       0.22327000
H       -4.72091700       0.92400600       1.54095800
H       -4.41338400       2.00435000       0.11291900
H       -3.01393600       1.29348200       1.09097400
H        0.19700200      -1.08042500      -3.71951600
H        0.94437600       0.36961000      -2.96885600