41
Properties=species:S:1:pos:R:3 energy=2.1041341542702074 pbc="T T T"
C        0.94110600      -5.15697300       1.94343000
C        0.48001000      -3.81224300       1.48133400
C       -0.83642900      -3.37639000       1.49415600
C       -0.83152800      -2.09651100       0.99251700
C       -1.81966600      -1.17403900       0.76912800
C       -1.52311700       0.08577400       0.23470800
N       -0.22927400       0.31368900      -0.03477100
C        0.77248100      -0.54247300       0.16076500
C        0.47336500      -1.80043000       0.69481700
O        1.23447100      -2.85419600       1.00122500
N        2.13745800      -0.28238700      -0.13123000
C        2.68496200       0.88993600      -0.66635700
C        1.96405300       2.00565500      -1.00247000
C        2.56098800       3.15175300      -1.53423600
C        3.92250700       3.19410700      -1.74066300
C        4.65691500       2.08788200      -1.41015000
C        4.05550600       0.97009200      -0.88884100
F        1.79465800       4.23385600      -1.85085700
C       -2.59236800       1.03015000       0.01404600
C       -3.34813500       1.16622000      -1.14513800
O       -4.20951100       2.13494100      -0.93036300
N       -4.05291200       2.61956300       0.27789500
C       -3.06063600       1.96861700       0.90825700
C       -2.53366100       2.17671000       2.28846700
C       -3.15884300       0.33537600      -2.35889200
H        1.57310400      -5.09480200       2.83125100
H        1.56004300      -5.59610000       1.11746000
H        0.06741700      -5.79994700       2.14580300
H       -1.72606700      -3.89231200       1.82004200
H       -2.82910800      -1.41381900       1.00361900
H        2.85439900      -1.05918600       0.07290600
H        0.90102800       2.05669500      -0.87420800
H        4.41255500       4.07669300      -2.15440000
H        5.72512000       2.10168100      -1.56450100
H        4.69039200       0.14280400      -0.65361500
H       -2.90385200       3.18782100       2.61578000
H       -1.43875800       2.16524300       2.33623800
H       -3.00829900       1.46305700       3.01150200
H       -3.74910100       0.75993400      -3.19920400
H       -2.09958600       0.34201100      -2.69727400
H       -3.51168400      -0.70845400      -2.20828100
38
Properties=species:S:1:pos:R:3 energy=2.151762203259462 pbc="T T T"
C       -0.39503100      -1.24792100       0.82678200
N       -0.26313200      -0.05154600       0.08090600
C       -1.33072700       0.90135400       0.21641300
C       -2.64267600       0.42261300      -0.18587500
C       -3.03349300       0.50923300      -1.50421100
C       -4.28653100       0.05702700      -1.90625200
C       -5.15552900      -0.48497800      -0.98869800
C       -4.77337800      -0.57370000       0.32132800
C       -3.53819600      -0.12450000       0.69998300
F       -4.67946400       0.14150800      -3.21920500
C        0.98600100       0.62213300       0.15696700
C        1.35144200       1.10199800       1.52329700
C        2.60343600       1.89198200       1.52883000
O        3.39536700       1.71629600       0.36167300
C        3.37321900       0.49537500      -0.30706300
C        4.50969600      -0.09312500      -0.82116400
C        4.37774900      -1.30695100      -1.46769400
C        3.13823500      -1.89826400      -1.58635700
C        2.01038300      -1.31174600      -1.07491200
C        2.13170800      -0.10920200      -0.43274600
H       -0.89584900      -2.06204700       0.24963900
H       -1.05684000      -1.11381700       1.73382800
H        0.55519400      -1.67531700       1.19917200
H       -1.37469900       1.26875000       1.28482800
H       -0.99749900       1.81729400      -0.35645500
H       -2.40439600       0.92481700      -2.29085000
H       -6.15059800      -0.84644900      -1.29716300
H       -5.48625500      -1.01035500       1.03116000
H       -3.27550600      -0.21177900       1.74271600
H        0.87851700       1.55368600      -0.47987100
H        1.40657300       0.31181700       2.28634100
H        0.51787100       1.78649800       1.85912500
H        3.26242200       1.58699700       2.39445500
H        2.42846800       2.98802800       1.65130000
H        5.46015700       0.40664700      -0.70647100
H        5.27568600      -1.79069400      -1.88406400
H        3.05693400      -2.84776900      -2.09551800
H        1.02074300      -1.74388900      -1.14921000
36
Properties=species:S:1:pos:R:3 energy=2.2617630984737906 pbc="T T T"
C        1.53749300      -1.60700700       1.70635700
C        0.48526800      -1.85513300       2.76699500
O       -0.70181600      -1.93579700       1.96016200
C       -0.57706600      -0.97595700       0.93523700
C        0.75882900      -0.75303300       0.75439300
C        1.21556700       0.13634600      -0.18010300
C        0.26931800       0.78953200      -0.92250900
N       -1.02573600       0.55986100      -0.73270000
C       -1.52117900      -0.29240200       0.16029300
N       -2.89801100      -0.54800800       0.37437400
C       -3.96235700       0.05373800      -0.31805200
C       -3.86548800       0.98591200      -1.31480900
N       -4.99089200       1.49255400      -1.90773100
C       -6.22821000       1.11927400      -1.56065800
N       -6.34307800       0.20598700      -0.58496400
C       -5.27018900      -0.32003800       0.02649000
C        2.61708100       0.43086200      -0.43499800
C        3.04995300       1.72375900      -0.57013000
C        4.37430500       2.02240000      -0.81345500
C        5.24758800       0.95730700      -0.91520100
C        4.83687200      -0.34294500      -0.78358700
C        3.50305100      -0.61931200      -0.53968000
F        4.80476600       3.30195200      -0.94754800
H        1.78446700      -2.58298800       1.26795200
H        2.37932400      -1.06706400       2.15694600
H        0.43935600      -1.01437100       3.47639900
H        0.59056900      -2.83901200       3.25540000
H        0.59700200       1.51284200      -1.68442700
H       -3.10777700      -1.26448500       1.13416900
H       -2.89594700       1.31847800      -1.62982400
H       -7.10578600       1.54588900      -2.05688300
H       -5.37353200      -1.06580000       0.82279300
H        2.36927700       2.58445300      -0.49224400
H        6.28831200       1.16961000      -1.10535600
H        5.52962300      -1.16100000      -0.86554800
H        3.18904200      -1.66640400      -0.43755400
51
Properties=species:S:1:pos:R:3 energy=2.8507065015037334 pbc="T T T"
C        6.10083200       2.43804400       0.62858200
C        5.32401700       2.95169800      -0.60556300
N        4.30135600       1.86628800      -0.62413300
C        5.07213200       0.69760700      -0.47967700
C        6.20424600       0.97708000       0.28774600
C        7.15156400       0.02900400       0.57615400
C        6.97992000      -1.24678300       0.08928400
C        5.86673000      -1.52962400      -0.66909500
N        4.96091700      -0.57774000      -0.93069000
C        2.93162000       2.03935700      -0.70966700
O        2.49036700       3.17504100      -1.18148400
C        1.91773500       1.07917800      -0.32454300
C        2.16700500      -0.04029800       0.42265400
C        1.17238900      -0.94408000       0.70698000
C       -0.15626900      -0.80146200       0.26847600
C       -0.38666000       0.31258300      -0.46996300
C        0.60097400       1.23903200      -0.77010700
C       -1.08311000      -1.87239100       0.59840100
N       -0.65352800      -3.12932600       0.99919200
C       -1.70525800      -3.87897000       1.26463100
C       -2.83416200      -3.10459200       1.03668900
N       -2.41854200      -1.87213100       0.62806100
C       -3.36760800      -0.94352400       0.36685000
C       -4.72675600      -1.16512300       0.48351700
N       -5.10522200      -2.40472600       0.89002600
C       -4.17895700      -3.33684600       1.15565600
C       -5.72395500      -0.15436300       0.19684200
C       -5.43900200       1.11544800      -0.21836700
C       -6.42113100       2.05734600      -0.48308800
C       -7.74703800       1.72757700      -0.32988700
C       -8.07681000       0.45314200       0.08841100
C       -7.07053300      -0.46488600       0.34465100
F       -6.11384600       3.30948900      -0.89346400
H        7.10890200       2.86382100       0.62888400
H        5.51816100       2.60978100       1.54255000
H        4.89488700       3.91485900      -0.34989900
H        5.96830200       2.91896400      -1.48425400
H        8.01447200       0.27384700       1.17165700
H        7.71848100      -2.00378500       0.30882800
H        5.74822400      -2.55588000      -1.04859800
H        3.17817500      -0.18183400       0.83234200
H        1.45501800      -1.79924000       1.30132400
H       -1.35172100       0.51662600      -0.89703000
H        0.37555800       2.11756200      -1.36276700
H       -1.75496700      -4.90780900       1.59982400
H       -3.06349600       0.02584800       0.07982500
H       -4.46754200      -4.33946600       1.48441000
H       -4.40893000       1.40443100      -0.34810600
H       -8.55284200       2.43346000      -0.52574600
H       -9.11123800       0.17954500       0.21313300
H       -7.30286000      -1.47177900       0.67411200
40
Properties=species:S:1:pos:R:3 energy=2.856470206220483 pbc="T T T"
C        6.59425700      -1.64634400      -0.91061300
C        5.26456300      -1.02859000      -0.81337800
C        5.13660300       0.30976100      -1.15965100
C        3.85781500       0.86759500      -1.06831000
C        2.75862600       0.11031800      -0.65133200
C        2.90491600      -1.18837700      -0.32175700
C        4.15874300      -1.78279000      -0.39421600
N        1.54813800       0.83330100      -0.55967300
C        0.30546800       0.44384700      -0.01554200
O        0.20631800      -0.71116400       0.42046100
C       -0.82542800       1.41379300       0.04326900
C       -2.13104000       1.20913600       0.41044200
N       -2.74748300       2.45449300       0.49306200
C       -3.95851300       2.92721800       0.78937700
C       -4.22435800       4.23626100       0.76218400
S       -2.60648900       4.90347700       0.25098000
C       -1.79957900       3.30354200       0.15875700
N       -0.62034400       2.75637700      -0.12081000
C       -2.77770600      -0.11708200       0.43716000
C       -2.40668800      -1.04607700      -0.57286200
C       -2.88189100      -2.33898300      -0.56364800
C       -3.72733500      -2.74210900       0.43960800
C       -4.13522600      -1.86494800       1.47437600
C       -3.60105500      -0.52435800       1.40050200
C       -4.85945400      -2.32585200       2.43284400
N       -5.65225800      -2.84168900       3.47485200
H        6.99344200      -1.61759700      -1.95730000
H        7.30362600      -1.03161600      -0.29721900
H        6.62074000      -2.68455800      -0.60451200
H        5.99856400       0.83853800      -1.47381700
H        3.76127500       1.91182600      -1.34076300
H        2.07322100      -1.75307600       0.01335300
H        4.32974300      -2.82102300      -0.13373200
H        1.53174400       1.82031500      -0.96993400
H       -4.81677000       2.22217300       1.09331100
H       -5.08995700       4.92954600       0.98218000
H       -1.76772400      -0.69414700      -1.34933300
H       -2.63111200      -3.06785000      -1.34892600
H       -4.14154600      -3.77163700       0.47455300
H       -3.94584600       0.10835000       2.20985900
34
Properties=species:S:1:pos:R:3 energy=2.856470206220483 pbc="T T T"
C        0.20000000      -1.57635500      -0.09334600
C       -1.27361000      -1.29089400       0.05678700
N       -1.35343900      -0.04491800       0.75571500
C        0.02385500       0.46822400       0.98004600
C        0.81755900      -0.19859700      -0.13796500
O        2.15785200      -0.20936700       0.21027300
C        3.23544900       0.28664400      -0.48078100
C        3.04591400       0.89430600      -1.69619300
C        4.19617600       1.37341000      -2.33695800
C        5.45336000       1.24734500      -1.78728500
C        5.62702500       0.63439000      -0.56557400
C        4.50210200       0.16042000       0.07150400
F        4.03268500       1.97981200      -3.54343600
C       -2.50146900       0.63963600       1.17792100
O       -2.32274400       1.74750700       1.80204300
C       -3.88274800       0.24040700       0.99071700
C       -4.51015900      -0.80100700       0.40598800
C       -5.84158800      -0.89623200       0.39889100
C       -6.59217700       0.08861200       1.00055600
S       -5.27797100       1.20907700       1.60622800
H        0.58210300      -2.10876400       0.80137300
H        0.34434400      -2.14681200      -1.02688200
H       -1.73770000      -2.13330400       0.62469400
H       -1.72215000      -1.23703700      -0.95901200
H        0.06301900       1.56047600       0.90812500
H        0.35412200       0.04153300       1.93909600
H        0.58372600       0.27715900      -1.11077100
H        2.09437200       1.03024700      -2.19014500
H        6.33748400       1.63328900      -2.31379100
H        6.62422800       0.54820100      -0.15617400
H        4.66177800      -0.32140100       1.03764000
H       -3.86446200      -1.59611100      -0.08581300
H       -6.39220400      -1.75417700      -0.08135600
H       -7.66473600       0.25428100       1.13621500
31
Properties=species:S:1:pos:R:3 energy=3.2733640101522705 pbc="T T T"
C       -6.26328600      -0.65639200      -0.97671800
C       -4.90893100      -0.71062600      -1.17503900
C       -4.03723700      -0.24554700      -0.21861900
C       -4.56492200       0.27852500       0.94911600
C       -5.92837200       0.33530400       1.15349500
C       -6.79705600      -0.13886400       0.17719200
F       -6.48396100       0.84081900       2.28268000
C       -2.58197700      -0.29908500      -0.42140200
N       -1.99178200      -0.78963800      -1.52019300
O       -0.68261300      -0.68540100      -1.37215200
C       -0.39952000      -0.14540700      -0.21817200
N       -1.58364500       0.09640300       0.37665400
C        0.93736100       0.12813700       0.29531400
N        2.12525300      -0.10588800      -0.28286800
C        3.10392000       0.30046300       0.53990600
N        2.49622400       0.78539900       1.62756800
O        1.22689200       0.67604500       1.46607500
C        4.55194600       0.24723700       0.33819300
C        5.08763700      -0.27288000      -0.82154200
C        6.44001800      -0.32079700      -1.00610400
N        7.26899300       0.14524100      -0.04502700
C        6.79917100       0.65744600       1.09362000
C        5.43493000       0.70745200       1.28342200
H       -6.89566400      -1.04010100      -1.77097600
H       -4.46396700      -1.11356800      -2.07521600
H       -3.89647400       0.65550800       1.72663600
H       -7.87092900      -0.09556300       0.33508700
H        4.45794500      -0.66055600      -1.62459200
H        6.89792900      -0.72447200      -1.90872700
H        7.45859000       1.03050700       1.86320300
H        5.06352800       1.12029900       2.20076400
48
Properties=species:S:1:pos:R:3 energy=3.502549875922443 pbc="T T T"
C        9.47897300      -1.11904200       0.53262300
N        8.05515300      -1.31372100       0.20684500
C        7.52362200      -2.43598200      -0.29943100
C        6.16747900      -2.24775100      -0.47281900
C        5.89264100      -0.97688700      -0.05619700
N        7.07616700      -0.45888700       0.34515800
N        4.67706400      -0.23843900      -0.00286100
C        3.42319700      -0.74258900      -0.41182200
O        3.39144300      -1.92261000      -0.85002300
C        2.16440300       0.04495400      -0.34821600
C        2.12362700       1.33216200       0.11867900
C        0.92054100       1.99099200       0.14593600
C       -0.28473700       1.42556400      -0.27831000
C       -0.23400700       0.15535600      -0.73924200
C        0.98476200      -0.51291000      -0.76608100
C       -1.44620500       2.29100800      -0.24089100
N       -1.37341800       3.67031500      -0.19104300
C       -2.56559300       4.21891400      -0.12516400
C       -3.46113200       3.15944400      -0.13015300
N       -2.75952500       2.01007600      -0.19908000
C       -3.43735200       0.85097200      -0.19330600
C       -4.82283400       0.86953900      -0.12232100
N       -5.50844700       2.05068900      -0.05657400
C       -4.83138400       3.19785300      -0.05984300
C       -5.60639700      -0.34974800      -0.11424300
C       -5.00206700      -1.57164300      -0.18088500
C       -5.76840200      -2.74557300      -0.17175600
C       -7.13571100      -2.65432800      -0.09499000
C       -7.75545900      -1.42751800      -0.02739500
C       -6.97116000      -0.28702500      -0.03841400
F       -5.19070100      -3.95426900      -0.23656800
H        9.71024200      -0.08059600       0.21418000
H        9.53193200      -1.13513100       1.64255100
H       10.09320700      -1.88600500       0.05978500
H        8.06059800      -3.32831800      -0.53048200
H        5.43554200      -2.94384800      -0.85873000
H        4.69703900       0.74432800       0.36092600
H        3.04007900       1.83342000       0.46747300
H        0.91493300       3.02670000       0.52913100
H       -1.11902300      -0.36981200      -1.13791300
H        1.02009600      -1.54674100      -1.14061600
H       -2.83382000       5.27385700      -0.07587600
H       -2.91436600      -0.10034200      -0.21301800
H       -5.35508600       4.16873200      -0.00721600
H       -3.93743800      -1.74046000      -0.24382200
H       -7.77221800      -3.54958200      -0.08520200
H       -8.83882100      -1.35074900       0.03354600
H       -7.45743800       0.67563100       0.01462900
39
Properties=species:S:1:pos:R:3 energy=3.5667118201397288 pbc="T T T"
C       -3.81618100       2.62087100      -1.09115900
C       -3.72679100       1.31762700      -1.78023500
C       -2.76148400       0.39088900      -1.34359700
C       -2.69204100      -0.82064300      -2.00025900
C       -3.53187300      -1.13144600      -3.05131800
C       -4.46459200      -0.23324600      -3.47126700
C       -4.54485000       0.97671300      -2.82692300
F       -5.29721100      -0.49971700      -4.48810200
O       -1.97327300       0.78841100      -0.29302900
C       -0.98274700       0.02114300       0.26580700
C       -0.97341800      -0.05076000       1.78725200
N        0.48374500       0.14797200       1.70102600
C        0.37566000       0.72745400       0.39707700
C        1.20763800      -1.12419600       1.75669000
C        2.67315100      -0.91270300       1.67519600
C        3.30334400      -1.07807200       0.45851600
C        4.66108700      -0.89605800       0.30782800
C        5.39723600      -0.53882600       1.41403400
C        4.76821300      -0.37421100       2.62740300
C        3.42135100      -0.55490500       2.77547000
C        6.81780800      -0.34738500       1.25612700
N        7.96099800      -0.17666700       1.11690600
H       -4.87353100       2.98357700      -1.18965400
H       -3.54079900       2.56967500      -0.03611600
H       -3.17224200       3.38536500      -1.61545300
H       -1.94289100      -1.55545500      -1.67063400
H       -3.44704300      -2.08150100      -3.53456700
H       -5.27950800       1.74145500      -3.12238700
H       -0.84148100      -0.96625500      -0.19304200
H       -1.44041700       0.81021700       2.26722200
H       -1.20169800      -1.02522000       2.22210900
H        0.23054300       1.81594600       0.38721000
H        1.12289200       0.40798600      -0.34269400
H        0.90480900      -1.75837100       0.89938000
H        0.94609600      -1.67546900       2.68288700
H        2.72076500      -1.36059400      -0.40270300
H        5.12826300      -1.03562200      -0.67193800
H        5.42449900      -0.09032900       3.45614900
H        2.95597200      -0.41764900       3.74220200
38
Properties=species:S:1:pos:R:3 energy=3.6027767550605247 pbc="T T T"
C        1.78484100      -2.03278600      -2.10413700
C        0.70024300      -2.72689200      -1.30698300
N       -0.21367900      -1.73008600      -0.76662100
C       -1.52104000      -1.64464300      -0.60919000
C       -1.81297200      -0.41119800      -0.03845400
N       -0.66554200       0.22643300       0.13799000
C        0.30992400      -0.59438700      -0.31288000
N        1.72928500      -0.31641700      -0.30569700
C        2.53118900      -1.01695200      -1.27750300
C        2.25823600       0.59290500       0.63075400
O        1.41399500       1.08538800       1.47355800
C        3.60682800       1.06639600       0.79940500
C        4.72386200       0.76740600       0.07356700
C        5.82455400       1.46789300       0.60681800
C        5.27563000       2.16390000       1.65193500
O        4.01068900       1.91856200       1.74118200
C       -3.17100300       0.05419300       0.29090200
C       -4.26142700      -0.75175500       0.03492700
C       -5.55084800      -0.36463800       0.32349000
C       -5.77475700       0.86869500       0.88806800
C       -4.69936300       1.68783600       1.15123700
C       -3.40536200       1.27835300       0.85238800
C       -4.95480600       2.98692600       1.74774600
N       -5.14906300       4.02079000       2.22724100
H        1.36576700      -1.56727700      -3.01894200
H        2.51236200      -2.79740500      -2.44694600
H        0.19042500      -3.42439400      -2.00337700
H        1.16801500      -3.35010100      -0.52180000
H       -2.25701800      -2.39462000      -0.87254000
H        3.36209500      -1.53828500      -0.74241800
H        2.99768700      -0.32603300      -2.00604800
H        4.87524500       0.13198300      -0.77850900
H        6.84933600       1.46084300       0.27649100
H        5.84475400       2.82524800       2.30275500
H       -4.12898500      -1.73432200      -0.41065800
H       -6.40835900      -0.98890800       0.12638900
H       -6.77901500       1.18797900       1.12065900
H       -2.58172300       1.93122700       1.06519800
44
Properties=species:S:1:pos:R:3 energy=3.648057459593681 pbc="T T T"
C       -0.27354000      -0.78696900       0.54102200
C        1.11859100      -0.32628400       0.81293300
N        1.27823200       0.94228200       0.18393500
C        0.00353100       1.49789100      -0.12364600
C       -1.03943700       0.44603300       0.19324700
C       -1.81368100       0.89750100       1.37981200
O       -2.77554900       0.01127800       1.85150300
C       -3.95861100      -0.36035800       1.22629800
C       -4.98315300      -0.68526900       2.10044900
C       -6.18950200      -1.06444900       1.51847200
C       -6.37412300      -1.11980300       0.16337100
C       -5.34443400      -0.79329000      -0.69309800
C       -4.12565400      -0.41012800      -0.14464400
C       -3.18153200      -0.11013500      -1.21835300
O       -3.59265200      -0.13077300      -2.40815900
N       -1.80063500       0.20918600      -0.98900000
C        2.11026700       0.92622600      -0.97475800
C        3.49268400       0.49447900      -0.74463800
C        4.28716700       0.31778700      -1.87968100
C        5.59993400      -0.08150300      -1.80868500
C        6.16558200      -0.31967400      -0.57892100
C        5.40598400      -0.15346200       0.55645400
C        4.07463500       0.25295800       0.45840300
C        7.53892500      -0.73462800      -0.55635900
N        8.65286400      -1.06815500      -0.51846700
H       -0.72176100      -1.27121600       1.44856600
H       -0.33887200      -1.54260300      -0.26882600
H        1.22135300      -0.18631800       1.92752600
H        1.83391300      -1.08438800       0.43038000
H       -0.17915600       2.44000800       0.46264800
H       -0.03878100       1.82209200      -1.19212000
H       -1.09318900       1.08862000       2.20324800
H       -2.23542400       1.91556400       1.13116300
H       -4.81700900      -0.63508400       3.14889000
H       -7.01663900      -1.32660100       2.15740700
H       -7.34131000      -1.42393000      -0.24779200
H       -5.50103000      -0.84040400      -1.76060600
H       -1.22960700       0.28503400      -1.86983800
H        2.15252900       1.96913000      -1.38117400
H        1.62866200       0.32966300      -1.80163700
H        3.88329700       0.49418500      -2.87260600
H        6.17945800      -0.20501900      -2.73396900
H        5.85926800      -0.34315600       1.52076500
H        3.47840200       0.38533600       1.35048800
58
Properties=species:S:1:pos:R:3 energy=3.728100167267218 pbc="T T T"
C        0.91658500      -0.13293000      -0.35038600
C       -0.08454200      -0.35506400       0.81500000
C       -0.31640500      -1.79484600       0.59720300
C        1.14475000      -2.28339500       0.49659100
N        1.83726800      -1.18798300      -0.01390100
C        3.04393300      -1.23729900      -0.72919300
C        3.30870800       0.22266500      -1.10050000
C        4.04330200       0.94124400      -0.17339100
C        4.22569700       2.31378300      -0.40295800
C        3.73881900       2.96380900      -1.45882100
C        2.99810700       2.20069600      -2.38725400
C        2.79603800       0.83712800      -2.18746400
C        4.87898300       3.04089800       0.72301400
N        5.39650200       3.63713200       1.65669200
C       -1.02183400      -2.22708300      -0.66199200
N       -2.09058500      -2.75181700       0.21461400
C       -1.26313600      -2.54458500       1.41098900
C       -3.37229500      -3.24085800      -0.11437800
C       -4.41539300      -3.41696900       0.77715000
C       -5.62677700      -3.93244200       0.38890700
C       -5.85202200      -4.30226500      -0.93554500
C       -4.85342000      -4.14227700      -1.82974400
C       -3.64059000      -3.62018700      -1.42812900
C       -1.25452200       0.59187200       0.66719200
O       -0.78599200       1.83500600       0.69283500
C       -0.30295400       2.97936300       0.81686500
C       -0.33856600       4.06122200      -0.01105400
C        0.27790600       5.26756400       0.29700600
C        0.95153500       5.45566600       1.43537100
C        1.04371500       4.39869800       2.35565500
C        0.44143300       3.24844300       2.03249900
H        0.34574500      -0.37471900      -1.25826700
H        1.31127400       0.87071800      -0.31963500
H        0.51699100      -0.19145700       1.71697800
H        1.43230900      -2.50503600       1.53989300
H        1.18473100      -3.21063600      -0.11910100
H        3.89435000      -1.50659000      -0.03054700
H        3.12408900      -1.86887100      -1.60243600
H        4.45293000       0.49753700       0.70066200
H        3.85873900       4.01561500      -1.62077100
H        2.60001300       2.70289500      -3.24297600
H        2.22734100       0.25777500      -2.90547400
H       -1.36688000      -1.43168200      -1.32930500
H       -0.56021500      -3.08746500      -1.18673400
H       -1.80963700      -1.89066600       2.15764700
H       -0.89805800      -3.47781800       1.89690600
H       -4.24964200      -3.13370700       1.81665800
H       -6.42325400      -4.06026900       1.07787500
H       -6.82589400      -4.72944700      -1.24084500
H       -4.97889500      -4.41632100      -2.88718800
H       -2.86165500      -3.49071200      -2.16242500
H       -1.67916700       0.37873600      -0.35779000
H       -2.06785900       0.30793800       1.37700500
H       -0.86565100       4.02910300      -0.96497700
H        0.24431000       6.13027000      -0.39441500
H        1.47094900       6.37128900       1.74005900
H        1.58906400       4.57922400       3.26034900
H        0.50972700       2.40910600       2.74597600
39
Properties=species:S:1:pos:R:3 energy=3.7796338173824005 pbc="T T T"
C       -5.46097400      -0.66583800       3.77110300
C       -4.43351300      -0.98116700       2.74496000
C       -4.43613200      -2.25464200       2.21868800
C       -3.50087400      -2.58843400       1.26398200
C       -2.56653400      -1.62783200       0.84739200
C       -2.53290800      -0.34809400       1.34933100
C       -3.51171700      -0.05950300       2.32324400
O       -1.63906000       0.63087400       0.97520000
C       -0.65050000       0.41403000       0.01805600
C       -0.65342000       1.54141700      -1.03205000
N        0.77945900       1.46966100      -1.02918300
C        0.70785700       1.01002200       0.35265400
C        1.32495400       0.51148900      -1.96379600
C        2.79721500       0.47009100      -1.93973200
C        3.54465600       1.31490400      -1.14770900
C        4.91812400       1.19180000      -1.20176800
C        5.53778700       0.26456500      -2.01150100
C        4.77400100      -0.58587100      -2.80927100
C        3.40144400      -0.47636500      -2.76738700
C        6.97456400       0.13657300      -2.06705700
N        8.14506700       0.04507100      -2.09835100
F       -5.31115100      -3.21387000       2.58444800
H       -5.40980900       0.41631100       4.06023100
H       -6.47989400      -0.81360900       3.33114700
H       -5.33877900      -1.33731600       4.64569300
H       -3.43495200      -3.56013400       0.80273000
H       -1.84378400      -1.92318800       0.09467400
H       -3.53852500       0.92807400       2.75687400
H       -0.56193000      -0.57105500      -0.44951800
H       -1.17085100       1.21551500      -1.94298400
H       -1.01006600       2.50136600      -0.57928900
H        1.43882800       0.22154500       0.62205300
H        0.66519400       1.85428800       1.06298400
H        0.88204800      -0.49539700      -1.87832500
H        1.03249100       0.88660400      -2.98485200
H        3.06044400       2.05524400      -0.50077200
H        5.49318000       1.85864700      -0.57736400
H        5.22861400      -1.32577400      -3.45684000
H        2.77944600      -1.13710700      -3.38769600
36
Properties=species:S:1:pos:R:3 energy=3.8918202981106265 pbc="T T T"