61
Properties=species:S:1:pos:R:3 energy=4.787491742782046 pbc="T T T"
C       -6.69079300      -0.04550100      -1.17615800
C       -5.26848000       0.44896300      -1.48525700
C       -4.66734800       0.80505200      -0.14298500
C       -3.38991000       1.55679900      -0.23607500
C       -2.82710900       1.66081100       1.17765200
C       -2.49242300       0.26842300       1.67099600
C       -1.71695200      -0.49522000       0.60970000
N       -1.29083800       0.47669900      -0.34578100
C       -2.39928800       0.95633900      -1.21348700
C       -0.02750500       1.03844200      -0.51902300
O        0.14916500       1.84321500      -1.54627700
N        1.11822100       0.87702900       0.25149000
C        2.36823500       1.50633500      -0.23534700
C        3.46895700       0.47749200      -0.27388100
N        3.48221700      -0.46003200       0.79524500
C        2.19108400      -0.99829000       1.17570200
C        1.29821400       0.20530100       1.50905600
S        4.50788200      -1.77887400       0.31189400
O        3.83437100      -2.48410600      -0.82726000
C        5.98742800      -1.05137000      -0.31342800
C        6.13566500      -0.72219900      -1.63101300
C        7.30604600      -0.14727100      -2.12295100
C        8.33746700       0.08612100      -1.21834400
C        8.21211500      -0.23886000       0.12414600
C        7.02585300      -0.80835400       0.55794900
O        4.84791200      -2.79355100       1.57754600
C       -3.85766600      -0.39578600       1.89408100
N       -4.60551600      -0.37478100       0.65184600
C       -5.30060000      -1.53985200       0.20523600
O       -4.87704600      -2.66729500       0.52359000
C       -6.52361900      -1.45150400      -0.63410400
H       -7.06459600       0.61500900      -0.36757700
H       -7.31489800      -0.00409200      -2.06921600
H       -5.28446000       1.32734100      -2.13258000
H       -4.72071700      -0.41476700      -1.94846200
H       -5.41299500       1.50958100       0.34248400
H       -3.59060100       2.58378500      -0.61399700
H       -2.00380700       2.36601100       1.25726500
H       -3.66723300       2.02176100       1.80531600
H       -1.94680900       0.31736800       2.59663900
H       -1.00540200      -1.21034700       0.97778600
H       -2.50493800      -1.16455200       0.08553600
H       -1.97369700       1.69582700      -1.91002000
H       -2.77350400       0.09647200      -1.77125800
H        2.20814900       1.87105500      -1.26237400
H        2.57165600       2.36641800       0.41154000
H        4.42484200       1.01916400      -0.27787000
H        3.35560000      -0.09384800      -1.22811700
H        1.68568400      -1.52640900       0.33918700
H        2.32023100      -1.59567700       2.07597900
H        0.42979700      -0.00463900       2.08836200
H        1.95205400       0.91011100       2.14491600
H        5.34019800      -0.90019800      -2.33846400
H        7.43028100       0.11284000      -3.15001400
H        9.26071600       0.53023000      -1.56029800
H        8.99655000      -0.06412300       0.82567900
H        6.89542100      -1.07259500       1.59290900
H       -4.39443700       0.25252900       2.62267600
H       -3.74107100      -1.43272800       2.27117800
H       -6.41968900      -2.13892300      -1.49403500
H       -7.38806200      -1.72678000      -0.00661200
36
Properties=species:S:1:pos:R:3 energy=4.787491742782046 pbc="T T T"
C        0.18887200       1.61754500       1.12283700
C       -1.21241200       0.96357400       0.99150900
N       -1.29403600       0.48844900      -0.34489000
C       -0.03535800       0.89345700      -1.06025500
C        0.95311400       0.75541900       0.10488300
O        2.19297000       1.28027700      -0.19408800
C        3.37460600       0.61530200      -0.06073100
C        4.53881700       1.27239800      -0.40042900
C        5.77270200       0.67146200      -0.29472400
C        5.82568500      -0.62357600       0.16545500
C        4.68496400      -1.30326800       0.51117100
C        3.46721100      -0.67213700       0.39318500
C       -2.29000100      -0.23375500      -1.01537800
O       -2.06570000      -0.52837800      -2.27397200
C       -3.54129700      -0.69208000      -0.47358800
C       -3.96367500      -0.49316000       0.80246500
C       -5.21246400      -0.99425300       1.20736200
N       -6.01551100      -1.66826100       0.38007100
C       -5.61378400      -1.87388900      -0.88437600
C       -4.41386400      -1.40162700      -1.30195500
H        0.16190500       2.63918100       0.72578700
H        0.58425800       1.50740600       2.13097100
H       -1.96848500       1.72666100       1.27814600
H       -1.15896900       0.08751400       1.68322000
H       -0.15170400       1.94679300      -1.31192000
H        0.19615700       0.20067100      -1.86540100
H        0.89838600      -0.26297800       0.47525700
H        4.48051400       2.30922500      -0.76742400
H        6.68284900       1.19266600      -0.56300100
H        6.79243100      -1.11431400       0.25543500
H        4.72332900      -2.31208100       0.86990500
H        2.60339500      -1.25028300       0.67776300
H       -3.38010000       0.03986500       1.53784400
H       -5.48669200      -0.79679800       2.24699700
H       -6.22245100      -2.41645300      -1.60938800
H       -4.09566000      -1.57057200      -2.32236100
35
Properties=species:S:1:pos:R:3 energy=4.787491742782046 pbc="T T T"
C       -0.61424400       1.20939000      -2.40969700
N       -0.77477700       1.07260800      -0.96913700
C       -2.05662400       1.30826100      -0.35162900
C       -2.90977400       0.09706800      -0.28393700
C       -2.33909300      -1.05922400       0.49930000
C       -3.63256100      -1.88034700       0.65399900
O       -4.63683400      -0.96089900       0.85650200
C       -4.19373500       0.30085200       0.48924600
C        0.36273900       0.69109200      -0.15841300
O        0.24025500       0.57711500       1.07713100
N        1.61455300       0.44573100      -0.75466700
C        2.81395200       0.06403000      -0.11453400
C        3.98490600       0.07691200      -0.88088300
C        5.16924600      -0.28867900      -0.33018300
C        5.24363100      -0.67849800       0.98903600
C        4.09944900      -0.69373200       1.74651400
C        2.89566200      -0.32213600       1.18613700
H        0.08100700       2.03545000      -2.62250300
H       -1.56150600       1.32084100      -2.93030600
H       -0.15186000       0.24137700      -2.75383200
H       -2.59332500       2.03360800      -1.03203000
H       -1.97158900       1.85432800       0.61032800
H       -3.22121300      -0.20092500      -1.30786800
H       -2.11959200      -0.69620700       1.52492600
H       -1.54635800      -1.60788800       0.00722900
H       -3.79451900      -2.34457000      -0.34468800
H       -3.54260000      -2.62988200       1.44335700
H       -4.90036700       0.83032500      -0.17582300
H       -3.93828600       0.85095500       1.40594900
H        1.62458700       0.56841400      -1.80971200
H        3.94616700       0.38619000      -1.93912500
H        6.08328900      -0.27534800      -0.93985400
H        6.19402200      -0.96661500       1.41303100
H        4.13290500      -0.99578700       2.78360400
H        2.01248600      -0.36380900       1.84688400
39
Properties=species:S:1:pos:R:3 energy=4.787491742782046 pbc="T T T"
C       -2.06826200      -2.17923300      -0.51452100
C       -0.98921400      -2.90352300      -1.30180600
O        0.18413100      -2.45735900      -0.62157800
C       -0.05713200      -1.12482400      -0.24640300
C       -1.41243100      -0.90373900      -0.16739300
C       -1.90599500       0.33316500       0.18414900
C       -1.01190900       1.34347300       0.45477000
N        0.30333400       1.13505800       0.37984400
C        0.77764600      -0.07029500       0.03733600
N        2.20154200      -0.30561300      -0.04647000
C        3.06414000       0.78309500       0.24644600
O        2.55189900       1.90405500       0.56602300
C        4.49500200       0.60451500       0.17834800
C        5.34900300       1.66163600       0.50983300
C        6.71719900       1.52124900       0.45319600
N        7.24457600       0.32645200       0.06583100
C        6.46789600      -0.71490900      -0.26127900
C        5.08579200      -0.56920600      -0.20283500
C       -3.36091200       0.58063000       0.27169300
C       -4.22232800      -0.28618000       0.88786300
C       -5.59232100      -0.02596500       0.95491700
C       -6.07155400       1.12704500       0.38679300
C       -5.23276600       2.03614600      -0.24942400
C       -3.89497700       1.72649500      -0.28396200
H       -2.26188900      -2.74003000       0.44259600
H       -2.99999200      -2.04721500      -1.10512800
H       -1.01886600      -2.50380900      -2.34606700
H       -1.09757400      -3.98878200      -1.28872200
H       -1.40708700       2.32191200       0.73291300
H        2.56348100      -1.24391400      -0.31298700
H        4.89699900       2.59445800       0.81260800
H        7.40016000       2.31876500       0.70294800
H        6.90734900      -1.64790300      -0.56399400
H        4.51242700      -1.44216000      -0.47842700
H       -3.85879900      -1.18856400       1.33448000
H       -6.25494000      -0.72226200       1.44532900
H       -7.13658000       1.36775200       0.41752500
H       -5.64434800       2.94810400      -0.69373300
H       -3.22270100       2.43148100      -0.78071000
42
Properties=species:S:1:pos:R:3 energy=4.787491742782046 pbc="T T T"
C       -4.17216400      -1.08591300       1.68909200
N       -3.90842900      -0.10272200       0.67162200
C       -4.50950100       1.16706400       0.93313700
C       -2.57214200      -0.07938600       0.22253100
C       -1.56601600       0.30024500       1.28127000
N       -0.32484600       0.22868500       0.45119000
C       -0.65557200       0.55595500      -0.89306600
C       -2.18328300       0.88097000      -0.82956200
C       -2.80749000       0.65528900      -2.17456300
O       -4.18772200       0.74117900      -2.02121000
C        0.89390600      -0.11190400       1.05022100
O        0.84325000      -0.34471800       2.35185200
C        2.17217000      -0.23525100       0.42547000
C        3.25841600      -0.55839300       1.23968600
C        4.53497600      -0.71124400       0.75867400
C        4.72854500      -0.53299700      -0.59082200
C        3.69315500      -0.21632300      -1.42175900
C        2.41018100      -0.06910600      -0.89811300
O        5.97953400      -0.67296600      -1.12393600
C        7.06700200      -0.99799500      -0.29961300
H       -3.76389000      -0.75638100       2.66692600
H       -5.24778400      -1.30757100       1.76872100
H       -3.62678100      -2.01088200       1.40764100
H       -5.58673000       1.09676100       0.67919700
H       -4.47837400       1.33446300       2.05123700
H       -4.04293400       1.99288200       0.40252600
H       -2.30056700      -1.13140300      -0.08439600
H       -1.52063500      -0.37934200       2.12429200
H       -1.68100200       1.36005800       1.51904700
H       -0.56422800      -0.32373100      -1.58920000
H       -0.17612000       1.47513900      -1.28983300
H       -2.22416400       1.90837300      -0.47640200
H       -2.49669200      -0.31670700      -2.58434800
H       -2.48866300       1.49491400      -2.82756900
H       -4.53112800       1.62569600      -2.33437300
H        3.13459000      -0.70573400       2.31214700
H        5.36798800      -0.96218400       1.40829400
H        3.82537900      -0.07310100      -2.47764200
H        1.63990500       0.17669200      -1.60026800
H        7.99052600      -1.19316000      -0.87283600
H        7.28338700      -0.20656600       0.46774200
H        6.79394700      -1.90868500       0.30038600
43
Properties=species:S:1:pos:R:3 energy=4.787491742782046 pbc="T T T"
C       -6.93924000       2.00283200       0.63320700
O       -6.58303600       1.21475800      -0.48870800
C       -5.48535300       0.37606800      -0.35017400
C       -4.74961000       0.29113000       0.82197000
C       -3.66685800      -0.53584400       0.95932300
C       -3.26923300      -1.32454600      -0.08725200
C       -3.96412600      -1.27766900      -1.26968000
C       -5.05138900      -0.43731100      -1.38508200
C       -2.10086700      -2.22933900       0.02981300
N       -0.87952200      -1.63424500      -0.40765400
C       -0.41262500      -0.45601200       0.24595900
C        1.00686900      -1.02395600       0.36333800
C        0.30950200      -2.32870900       0.04767700
O        1.90108300      -0.56536900      -0.59605800
C        3.13362000      -0.00948600      -0.41761500
C        3.83402800       0.36939700      -1.55853900
C        5.09038900       0.93966800      -1.44860600
C        5.69769800       1.15627000      -0.23080200
C        5.00484300       0.78128200       0.90160000
C        3.73383200       0.20360900       0.80527000
O        6.95905200       1.72984600      -0.14103900
C        7.53251100       1.92794800       1.13579000
H       -7.10024000       1.28478400       1.47951200
H       -6.07555900       2.63415300       0.92708100
H       -7.85408300       2.60242800       0.44172100
H       -5.09453100       0.93443100       1.63733600
H       -3.11623100      -0.58126000       1.87976400
H       -3.67037100      -1.89571900      -2.12281600
H       -5.60161800      -0.39788100      -2.31613500
H       -1.97246100      -2.48004100       1.12193600
H       -2.28878000      -3.12816900      -0.56417200
H       -0.85963800      -0.16172000       1.19390100
H       -0.37824700       0.39497300      -0.47919700
H        1.35072200      -0.91859600       1.39352100
H        0.76947400      -2.86841900      -0.79383900
H        0.08829400      -2.95922800       0.94118800
H        3.38948700       0.21501100      -2.53215500
H        5.66831100       1.24910200      -2.32718200
H        5.44194900       0.93125900       1.89505100
H        3.18676300      -0.09172500       1.68462300
H        7.74309200       0.98257000       1.64698600
H        6.80250100       2.56795500       1.70082200
H        8.46960000       2.51577100       1.03851600
39
Properties=species:S:1:pos:R:3 energy=4.787491742782046 pbc="T T T"
C        4.96458000       3.11889500      -0.24625300
C        4.23495600       1.86590000      -0.63673900
N        4.33110200       1.30026500      -1.85710900
N        3.55959300       0.23139600      -1.82434300
C        2.99827100       0.14057600      -0.60507700
O        3.42586300       1.14123200       0.08730400
C        2.06988800      -0.95930800      -0.24132700
C        2.55519300      -1.70482600       1.00963300
C        1.29060800      -2.46916600       1.33754000
N        0.19701500      -1.59858500       0.97499200
C        0.74490900      -0.45300600       0.27817200
C       -0.80555800      -2.28350600       0.18516100
C       -1.89698000      -1.32301000      -0.10003800
C       -2.79049300      -1.58419800      -1.13476900
C       -3.79199900      -0.69211800      -1.37715000
C       -3.94212300       0.46349400      -0.62223700
C       -3.07367100       0.72624200       0.39043700
C       -2.05575800      -0.17394500       0.64191000
O       -4.99138200       1.35691100      -0.90816200
C       -5.13633100       2.51678700      -0.14511900
H        5.35543300       2.95447600       0.79057000
H        4.24421700       3.95459600      -0.28040600
H        5.81292300       3.28654100      -0.92615700
H        1.89904600      -1.66598600      -1.05141800
H        3.41250100      -2.35525200       0.78779200
H        2.72437500      -0.99071800       1.82124500
H        1.20405400      -2.68259300       2.41167800
H        1.24797700      -3.38249000       0.71437200
H        0.10524300      -0.04775400      -0.50787600
H        0.99345200       0.30659000       1.07647100
H       -1.23718800      -3.09992400       0.79534300
H       -0.38193100      -2.73657500      -0.72592800
H       -2.65648900      -2.48337100      -1.70614200
H       -4.48611500      -0.88767300      -2.17528900
H       -3.14096100       1.59803900       1.00278200
H       -1.35559800       0.02592700       1.45288100
H       -4.41376200       3.30863100      -0.48210400
H       -5.03145100       2.37698300       0.93363600
H       -6.18340800       2.90052100      -0.31241500
47
Properties=species:S:1:pos:R:3 energy=4.787491742782046 pbc="T T T"
C        7.43336100       1.40450700       0.06857700
O        6.26468100       1.34808900       0.86405200
C        5.19602900       0.53297600       0.55304900
C        5.17416100      -0.29224100      -0.55293500
C        4.08521400      -1.08444400      -0.81773100
C        2.98163300      -1.08003800       0.01182000
C        2.99783800      -0.25789800       1.11805700
C        4.09246400       0.54014400       1.38644200
C        1.79288400      -1.95162200      -0.27262900
N        0.67905400      -1.44690500       0.45472100
C        0.25571700      -0.12476000       0.13289600
C       -0.82138500      -0.08143200      -0.92391100
C       -2.04157200      -0.81453600      -0.45490000
C       -1.71233600      -1.61147100       0.78183300
C       -0.42269000      -2.38743300       0.46780000
N       -3.18868000       0.02507900      -0.29920000
C       -4.42115800      -0.10313300      -1.04590100
C       -5.32716200       0.96425000      -0.56535200
C       -6.58419000       1.52040900      -0.71835300
C       -6.72033200       2.57919400       0.15046500
C       -5.52109900       2.66136500       0.83973800
N       -4.69609100       1.67178000       0.38635100
C       -3.39195000       1.13536900       0.58092500
O       -2.54427200       1.54859500       1.38306100
H        7.12969100       1.54407800      -0.99418400
H        7.99841700       2.32286200       0.37221100
H        8.06750000       0.50782900       0.19261700
H        6.04602300      -0.30520500      -1.22116900
H        4.06281500      -1.74013900      -1.69276500
H        2.11974700      -0.25686500       1.77988500
H        4.04140200       1.16156900       2.26961900
H        1.61874300      -1.97172700      -1.38358600
H        2.07255800      -2.96064700       0.06633200
H       -0.09579300       0.34878700       1.08840500
H        1.09984000       0.49305100      -0.24320600
H       -1.05087400       0.97573100      -1.17183600
H       -0.37071400      -0.53440800      -1.84034500
H       -2.26294700      -1.58074000      -1.24665800
H       -2.51478300      -2.36533000       0.91024400
H       -1.50237300      -1.01134300       1.66449700
H       -0.51418100      -2.94424200      -0.48113900
H       -0.25837200      -3.05658200       1.34225000
H       -4.85220400      -1.10010200      -0.76326100
H       -4.25257200      -0.02226200      -2.13863600
H       -7.33688700       1.17639400      -1.41024300
H       -7.55224500       3.25059300       0.31818100
H       -5.25291200       3.37285300       1.60842100
41
Properties=species:S:1:pos:R:3 energy=4.787491742782046 pbc="T T T"
C        6.17864900       2.45118100       1.63475700
O        4.81046700       2.21671000       1.38235500
C        4.45234700       1.09178800       0.66134800
C        5.38953400       0.19570500       0.18351400
C        5.04406300      -0.92358500      -0.53302300
C        3.73297400      -1.18028500      -0.79459200
C        2.77188400      -0.30611500      -0.33214000
C        3.12976200       0.81425300       0.38604000
C        1.33951100      -0.54706100      -0.59360700
C        0.80661500      -1.60159300      -1.28580600
N       -0.56687900      -1.48466400      -1.32241200
C       -1.57563800      -2.30928100      -1.89491900
C       -2.95873400      -1.79228700      -1.91760500
C       -3.04260900      -0.30128800      -1.67054000
N       -2.24518800       0.03782100      -0.51355700
C       -0.83950700      -0.36766600      -0.65627900
N        0.31292200       0.21603000      -0.20472000
C       -2.60249000       0.71498400       0.62890200
O       -1.66687300       1.23852000       1.35969400
C       -3.93078100       0.93247900       1.15317600
C       -5.18349800       0.45117600       0.75386500
C       -6.25721700       0.88128100       1.43112300
C       -6.18468600       1.73057700       2.45060600
S       -4.34321100       1.98924100       2.49683300
H        6.67856100       1.55832800       2.08907500
H        6.28412400       3.25727800       2.40244800
H        6.75457700       2.71073900       0.73646200
H        6.45326200       0.39322100       0.38911200
H        5.80178600      -1.60426400      -0.89237800
H        3.39996000      -2.05979400      -1.36248100
H        2.37766400       1.52000900       0.76127900
H        1.34514500      -2.41657300      -1.74556100
H       -1.27119900      -2.47536200      -2.97364500
H       -1.53946400      -3.35944900      -1.47325300
H       -3.48191500      -2.05374200      -2.84622000
H       -3.53284700      -2.30711100      -1.09338200
H       -4.01323400       0.12909500      -1.76790300
H       -2.46902400       0.15213900      -2.56978900
H       -5.24680200      -0.30334800      -0.09603800
H       -7.29159900       0.50652800       1.12619100
H       -6.82041200       2.20438800       3.11758400
48
Properties=species:S:1:pos:R:3 energy=4.787491742782046 pbc="T T T"
C       -5.45926400       0.89802800       0.31007300
N       -5.08639000      -0.50332400       0.31807900
C       -4.51637500      -0.81381000      -0.97025100
C       -3.15802000      -1.46929700      -0.82974000
C       -2.18790000      -0.54497200      -0.13109400
C       -2.85164400       0.09548000       1.01901200
C       -4.10192900      -0.66881000       1.38405500
O       -1.50787700       0.23102800      -0.99505900
C       -0.20099600       0.13033100      -1.19238000
C        0.32766500      -0.11711000      -2.55110100
C        1.75146900      -0.67814100      -2.41654200
N        2.38771900       0.05085500      -1.27025200
C        1.93449000       1.39006900      -1.12302800
C        0.47481400       1.42212100      -0.66967800
C        3.36754200      -0.59060800      -0.53411600
O        3.75180500      -1.79039100      -0.96113800
C        4.06670200      -0.16344200       0.65659100
C        5.25157100      -0.79828600       1.04931800
C        5.90639200      -0.47972400       2.20078400
C        5.42083900       0.50119700       3.04621400
C        4.26192700       1.12418400       2.66672000
C        3.59587600       0.79765300       1.49404000
H       -5.33848700       1.29712200       1.33322600
H       -6.51211400       1.04312800      -0.05253000
H       -4.82356000       1.41865000      -0.42355600
H       -4.50970200       0.02683200      -1.67623200
H       -5.19177600      -1.59137900      -1.42854700
H       -2.79736800      -1.75671800      -1.84292600
H       -3.28889200      -2.43563400      -0.29428800
H       -1.41191500      -1.24580000       0.32122500
H       -3.21008900       1.14177600       0.78667100
H       -2.24153500       0.13411100       1.94593700
H       -3.88399600      -1.73289200       1.49478300
H       -4.53322500      -0.32046200       2.34837000
H        0.20550600      -0.66749300      -0.53047700
H       -0.21479400      -0.92710800      -3.10422200
H        0.45949500       0.78670000      -3.18574800
H        2.35047700      -0.56558400      -3.31200200
H        1.69651900      -1.72334100      -2.09728300
H        1.91596700       1.80646500      -2.22046200
H        2.54978000       2.09026700      -0.58488400
H        0.48573000       1.39748300       0.43147900
H       -0.02188500       2.32011300      -1.02182800
H        5.63753000      -1.56031000       0.39777700
H        6.83098800      -0.96439400       2.52176000
H        5.88905800       0.79171100       3.95637500
H        3.85588400       1.89427900       3.30351000
H        2.67398800       1.31944700       1.32285600
40
Properties=species:S:1:pos:R:3 energy=4.787491742782046 pbc="T T T"
C       -7.45823100       2.45512800       1.15402900
C       -6.29054600       1.78975900       0.50316500
N       -6.01002800       1.69601300      -0.82014400
O       -4.89641800       1.03546300      -0.98135500
C       -4.41067800       0.67750600       0.18139000
N       -5.26802100       1.14066400       1.10680400
C       -3.17985000      -0.07575500       0.41262000
C       -2.30164500      -0.54987200      -0.54041200
N       -1.28174200      -1.19726300       0.06119800
N       -1.51596600      -1.12898400       1.34231500
N       -2.65142500      -0.46020700       1.58987400
C       -0.16433900      -1.83140000      -0.60615000
C       -0.00919400      -1.34905500      -2.02991300
C        0.52936500       0.03679200      -1.76627400
N        1.64130600      -0.30026000      -0.80210700
C        1.13746100      -1.33591800       0.04078700
C        2.87333000       0.33247900      -0.85767500
O        3.01151300       1.20091000      -1.81200000
C        4.01798000       0.16417700      -0.01244500
C        3.98834900      -0.60644900       1.10889500
C        5.15489100      -0.75698200       1.88073300
C        6.33353100      -0.16162700       1.56110100
C        6.32583900       0.61383400       0.41681600
C        5.23735100       0.79311000      -0.36131200
H       -7.69783600       1.85524500       2.06504600
H       -7.13654900       3.47963300       1.44061400
H       -8.35034500       2.43936000       0.50910700
H       -2.44459300      -0.40396000      -1.59867600
H       -0.21901800      -2.92204900      -0.60257800
H       -0.94217600      -1.35347200      -2.59944400
H        0.71546400      -1.97718400      -2.55957200
H       -0.23902800       0.61418800      -1.22761700
H        0.93293700       0.51021900      -2.65907500
H        1.79573100      -2.23563500       0.12352700
H        0.88528300      -0.97390900       1.03929400
H        3.10249500      -1.11195700       1.47339900
H        5.09514000      -1.38103400       2.77048600
H        7.20559700      -0.29992500       2.17598900
H        7.25192100       1.10141500       0.13724700
H        5.23214700       1.39978200      -1.25768500
43
Properties=species:S:1:pos:R:3 energy=4.772378104971998 pbc="T T T"
C        7.39036400      -0.60966200      -1.66514200
O        6.14846700       0.02082500      -1.82059500
C        5.17897400      -0.07771600      -0.83150900
C        5.38773100      -0.78776200       0.33013500
C        4.42554700      -0.88550600       1.31166200
C        3.21074300      -0.25929300       1.14176700
C        2.97045200       0.45625000      -0.00406700
C        3.95270100       0.53310000      -0.96295100
C        1.65557100       1.12629700      -0.17336600
N        0.67873700       0.30133300      -0.81254400
C        0.37121800      -0.91170200      -0.13150900
C       -0.47368400      -0.47343200       1.02584900
C       -1.33489400       0.60328200       0.39966100
C       -0.57461200       1.01467000      -0.83936500
C       -2.64084400      -0.03941400       0.03977100
N       -2.84077900      -1.09278100      -0.76885300
N       -4.13805600      -1.33804000      -0.81611400
C       -4.76200500      -0.44003400      -0.03718800
O       -3.82460800       0.32614400       0.46168300
C       -6.20964800      -0.33240200       0.21096100
C       -6.79908200       0.61336800       1.02372700
C       -8.17078000       0.40477200       1.01377200
C       -8.34675600      -0.67835300       0.17891700
O       -7.16570000      -1.07920300      -0.27055300
H        7.98510600      -0.38032400      -2.59754300
H        7.97697900      -0.14850300      -0.83309300
H        7.30401700      -1.68958900      -1.50063200
H        6.34473200      -1.27692900       0.45617900
H        4.63757800      -1.46687400       2.22869200
H        2.47355600      -0.35713600       1.93692100
H        3.75451100       1.11025700      -1.88356600
H        1.26931300       1.53524900       0.79773900
H        1.81912300       2.01686400      -0.81807100
H        1.24697200      -1.51716700       0.16220500
H       -0.26112800      -1.53405800      -0.79776500
H       -1.10884700      -1.31376000       1.42310500
H        0.08912500      -0.07614900       1.87598800
H       -1.52667100       1.43938200       1.08099900
H       -1.16104200       0.67889700      -1.71700500
H       -0.39633200       2.11380900      -0.88240000
H       -6.31938300       1.41193500       1.59979800
H       -8.91281100       0.97649300       1.54857700
H       -9.30385300      -1.14863400      -0.08427700
41
Properties=species:S:1:pos:R:3 energy=4.71760561531788 pbc="T T T"
C        7.17821700       0.18793000      -0.72933200
O        5.87729800      -0.34184900      -0.89502300
C        4.81065100       0.36090200      -0.32768000
C        5.00097000       1.52787200       0.37028600
C        3.90216800       2.16588100       0.90159600
C        2.62360100       1.66847900       0.75314100
C        2.44906200       0.49910000       0.05172100
C        3.54267300      -0.15245700      -0.48732000
C        1.12490400      -0.09643600      -0.15174500
C        0.82665900      -1.25551400      -0.83143000
N       -0.50574900      -1.43662400      -0.77741900
C       -1.36938300      -2.48243300      -1.30705100
C       -2.33759500      -2.78580100      -0.14929500
C       -3.27049800      -1.59146000       0.04252300
N       -2.50408500      -0.36918500       0.12553300
C       -1.07168700      -0.44312800      -0.09288900
N       -0.05972200       0.36385100       0.28036400
C       -3.04063000       0.88737600       0.40710300
O       -2.19881500       1.88156600       0.45594800
C       -4.41628500       1.22241900       0.65147200
C       -4.87015700       2.53204600       0.93202800
O       -6.15530300       2.48844900       1.10040000
C       -6.60600200       1.27501200       0.95952400
C       -5.52457500       0.42756000       0.67030900