53
Properties=species:S:1:pos:R:3 energy=0.9932517730102834 pbc="T T T"
C       -5.54565700       0.23182200       3.60999600
C       -5.07751000      -0.49305900       2.38494200
C       -5.60863800      -0.21046600       1.14399500
C       -5.14478600      -0.90625900       0.03755100
C       -4.16821400      -1.87578800       0.12446500
C       -3.64459300      -2.14993600       1.36972400
C       -4.10441100      -1.46139300       2.46064300
S       -3.60275300      -2.74087900      -1.30828300
O       -3.17832300      -4.09664100      -0.81943000
O       -4.73003500      -2.97756200      -2.27043900
N       -2.27014800      -1.91180600      -2.02670900
C       -2.36437800      -0.60929100      -2.53109900
C       -3.51845500      -0.24130800      -3.23805600
C       -3.69087200       1.00196200      -3.79510900
C       -2.70892400       1.95618000      -3.67509400
C       -1.56051400       1.59511100      -2.97291700
C       -1.38428900       0.34935300      -2.41239600
C       -0.15359300       0.05764400      -1.65589600
O       -0.00727400      -1.06405200      -1.10166500
N        0.91015500       0.96558200      -1.49769900
C        2.11768900       0.80432800      -0.80676500
C        3.06979100       1.82892000      -0.84558500
N        4.24997800       1.77165200      -0.21685300
C        4.61948500       0.70173700       0.51644700
C        3.72471700      -0.33108900       0.58867500
C        2.47317100      -0.29088700      -0.06754600
C        5.90917800       0.65048600       1.19812800
C        6.78627000       1.74019600       1.09075200
C        8.01337000       1.75748700       1.70540900
C        8.43566300       0.68654400       2.46338300
C        7.57901800      -0.38692600       2.57288900
C        6.33024700      -0.40132200       1.94577700
H       -6.31445400       0.97410700       3.32281000
H       -4.64437400       0.72257400       4.06516500
H       -5.90396500      -0.51868300       4.33757800
H       -6.38303500       0.54833900       1.02514500
H       -5.59137400      -0.64925200      -0.91282100
H       -2.86928500      -2.92152900       1.42688500
H       -3.70048500      -1.66884600       3.44035300
H       -1.38026900      -2.44854000      -2.08784400
H       -4.29903800      -0.96958700      -3.34591300
H       -4.59427900       1.26123200      -4.33757000
H       -2.83492900       2.93724200      -4.11024000
H       -0.82793300       2.38819500      -2.91395000
H        0.76834700       1.90055500      -1.97119700
H        2.84790600       2.71179800      -1.40899300
H        3.95051900      -1.21560900       1.15443600
H        1.81503500      -1.14286300       0.03584200
H        6.46983300       2.60179600       0.49274900
H        8.69994400       2.59633900       1.62878500
H        9.40370100       0.70160300       2.94764300
H        7.90984800      -1.21966100       3.16350000
H        5.72292300      -1.26718200       2.07640000
66
Properties=species:S:1:pos:R:3 energy=0.9932517730102834 pbc="T T T"
C       -7.92465100       0.12118600      -2.13402600
C       -6.59402200       0.86601000      -2.24123000
C       -6.96517000       2.33969900      -2.37059800
O       -5.85808600       0.62348500      -1.09456200
C       -4.61824500       0.02960600      -1.09234500
C       -4.02907000      -0.12406800       0.17687300
C       -2.79154600      -0.71213500       0.22579100
C       -2.10807400      -1.15259600      -0.88869300
C       -2.70827700      -0.98862900      -2.10962600
C       -3.97161100      -0.39513500      -2.22696900
C       -0.76927400      -1.78972600      -0.82782700
C        0.28475600      -0.71326800      -0.94053100
N        1.59726500      -1.35361000      -0.87816000
C        2.80238400      -0.56161700      -0.96108800
O        2.62811000       0.65737500      -1.08521700
C        4.11265400      -1.22858300      -0.89489900
C        4.25787100      -2.62544100      -0.90831300
C        5.61550300      -2.81378000      -0.86218300
C        6.30560400      -1.64454500      -0.82101800
N        5.32063400      -0.67160200      -0.84147400
C        5.57783700       0.78071600      -0.81196000
C        5.73761100       1.30203800       0.56388700
C        7.03995100       1.46131600       1.05516600
C        7.27636800       1.93514700       2.32436900
C        6.25197500       2.27761400       3.17771500
C        4.96635200       2.12977400       2.71668200
C        4.73135900       1.64610300       1.42173700
C        7.64756800      -1.69784600      -0.77724400
C        8.28695100      -2.92085700      -0.77409400
S        6.87397800      -4.08394800      -0.83885700
O       -4.72432600       0.32023300       1.27405900
C       -4.36624500       0.28535600       2.60736100
C       -5.33049400      -0.49492600       3.47381200
C       -4.26730100       1.70821700       3.16549400
H       -8.56421600       0.58207300      -1.37699000
H       -8.37735900       0.10763200      -3.14596700
H       -7.67527400      -0.93741500      -1.86404700
H       -6.11921600       0.58913400      -3.17542300
H       -7.48110900       2.70755100      -1.45568800
H       -7.71692900       2.40202800      -3.19040200
H       -6.06450300       2.93846500      -2.61468800
H       -2.28991700      -0.85681400       1.17365000
H       -2.24638900      -1.30246400      -3.02550800
H       -4.41029800      -0.28683200      -3.22739900
H       -0.65893900      -2.36769400       0.12883800
H       -0.68056200      -2.54056400      -1.63687100
H        0.15490800       0.00466900      -0.10633400
H        0.14817000      -0.21970600      -1.91500600
H        1.69589600      -2.38432700      -0.77336800
H        3.48077500      -3.35283400      -0.94588300
H        6.52916500       0.89249400      -1.39509400
H        4.78228000       1.31838100      -1.30916600
H        7.85926500       1.20417400       0.39592900
H        8.30206600       2.05526400       2.69694700
H        6.45072500       2.65409800       4.18671900
H        4.14697600       2.39241400       3.36931800
H        3.72273900       1.55066700       1.11075600
H        8.32571900      -0.78351700      -0.74702300
H        9.32785300      -3.21564900      -0.74323000
H       -3.36761900      -0.17372400       2.71928100
H       -5.98956400       0.22931500       4.02398700
H       -5.96211100      -1.18594600       2.86074000
H       -4.77810700      -1.11055200       4.21083000
H       -5.00443600       2.37828800       2.64217900
H       -4.58750900       1.68814300       4.23021500
H       -3.24081800       2.07863200       3.09666600
57
Properties=species:S:1:pos:R:3 energy=0.9932517730102834 pbc="T T T"
C       -9.63951800       1.73271200       2.49887100
O       -8.69072500       0.72948100       2.22995700
C       -8.00987100       0.66769800       1.02247600
C       -8.21505800       1.56958600       0.03179900
C       -7.46924800       1.42844500      -1.14793400
C       -6.56883800       0.40534200      -1.27476300
C       -6.39642400      -0.48368800      -0.25485500
C       -7.08651400      -0.38844300       0.91257900
O       -6.94530500      -1.24924200       1.99624000
C       -5.38031600      -1.64668900      -0.37810200
N       -4.12470900      -1.01931000      -0.53293800
C       -2.75651100      -1.31377800      -0.62182600
C       -2.12953400      -0.75891100      -1.70489900
C       -0.77604600      -0.55765800      -1.68517200
C       -0.04185700      -0.90726700      -0.57751400
C       -0.67602000      -1.49367300       0.50691300
C       -2.04334100      -1.70338800       0.49876800
S        1.50584900      -0.14272300      -0.39513600
O        1.21595500       1.32645200      -0.06102100
O        2.01626900      -0.02558700      -1.87128300
N        2.67747400      -0.79746700       0.55949600
C        4.03542700      -0.99497800       0.09007800
C        4.93711800      -1.70597900       0.80901400
C        6.33771200      -1.43352100       0.71378400
C        6.75468300      -0.42406400      -0.13114900
C        5.86137400       0.29409500      -0.90046100
C        4.50396400       0.00552500      -0.78356200
C        8.07142600       0.24304200       0.09599300
C        9.17009100      -0.35025200       0.60560900
C       10.23932400       0.44500600       0.96789000
C       10.23618500       1.82176400       0.83339400
C        9.11698400       2.41372300       0.31083500
C        8.06497000       1.63791700      -0.05089600
H      -10.10256200       1.58298500       3.52323500
H       -9.18135100       2.76752400       2.47187500
H      -10.44709700       1.66416100       1.75991900
H       -8.93638700       2.34268700       0.18189000
H       -7.62951400       2.10744600      -1.96141800
H       -6.02351100       0.29622800      -2.19660600
H       -6.34387700      -2.01944100       2.08551700
H       -5.70176300      -2.07069600      -1.42621800
H       -5.55900600      -2.36100200       0.36462300
H       -4.23683800       0.12674200      -0.42907700
H       -2.70789100      -0.47116500      -2.58735300
H       -0.27208300      -0.12530700      -2.54826100
H       -0.03943600      -1.78483400       1.35588900
H       -2.54201300      -2.16004900       1.34442800
H        2.50821300      -1.10570300       1.54339600
H        4.63271600      -2.47993000       1.47403700
H        7.06005200      -1.96891400       1.27204100
H        6.15957700       1.05232500      -1.60530000
H        3.84843300       0.59461900      -1.37392900
H        9.19902500      -1.42988600       0.71459200
H       11.14509000       0.01617000       1.39089900
H       11.05888000       2.46442900       1.11619900
H        9.11709500       3.50125600       0.19843000
H        7.19927800       2.13618600      -0.46022400
92
Properties=species:S:1:pos:R:3 energy=0.9932517730102834 pbc="T T T"
C        0.57312200      -3.41723800       2.17389300
N        0.95041000      -2.28446800       1.35793500
C       -0.16472300      -1.41030400       1.08873600
C       -0.78778400      -0.86870600       2.36226100
C       -1.90613800       0.01882400       1.95325000
C       -1.75842800       1.37548100       1.72673800
C       -2.81237500       2.17455500       1.34398500
C       -4.07290000       1.65353300       1.16752400
C       -4.24735300       0.29060800       1.38925900
C       -3.18180000      -0.47581300       1.76860600
O       -5.18098300       2.40407100       0.78164700
S       -5.47665600       2.54469000      -0.90459900
O       -4.59175800       1.61153400      -1.68538100
C       -7.13220900       2.13408500      -1.27745800
C       -7.44588600       1.08158300      -2.13065100
C       -8.76857800       0.80448000      -2.39208600
C       -9.77181500       1.55391300      -1.82071600
C       -9.48813800       2.60286700      -0.97101200
C       -8.15927500       2.87918200      -0.71023500
C       -7.83131000       3.92345800       0.13483500
C       -8.84212600       4.65118300       0.68627100
N      -10.12676200       4.36718800       0.42071200
C      -10.48940600       3.36544500      -0.39134800
O       -5.10301500       4.10337800      -1.42721700
C        0.20353100      -0.21481300       0.27587200
O       -0.59501100       0.12072100      -0.68879400
N        1.32993300       0.59574800       0.44233300
C        2.26696500       0.43826500       1.51013200
C        3.51991400       1.24593200       1.31676100
N        3.91148100       1.36201600      -0.04228900
C        2.97758600       1.45730000      -1.12194500
C        1.58464700       1.65276900      -0.54959300
C        5.30807200       1.40512000      -0.36944500
O        5.71288900       1.49852100      -1.56646400
O        6.28799600       1.34780700       0.62054600
C        7.65317300       1.39852900       0.26291100
C        7.99394500       2.66516700      -0.45191600
C        9.19782600       2.80344100      -1.11315800
C        9.51942800       3.95982900      -1.76924200
C        8.62137700       5.01379200      -1.77133700
C        7.40154900       4.88882900      -1.10735000
C        7.09462300       3.71102700      -0.44956000
S        1.57907400      -2.80526200      -0.17273000
O        2.90617700      -2.12914900      -0.34031200
C        1.83079600      -4.50592300      -0.30766300
C        3.13388900      -5.02506500      -0.31787900
C        3.42029900      -6.36490500      -0.37696400
C        2.41180000      -7.26972700      -0.43043100
C        1.11816500      -6.83574100      -0.42527000
C        0.84415600      -5.47307000      -0.36481700
C       -0.46408200      -5.08597700      -0.38247800
C       -1.46914000      -6.02754000      -0.45549700
N       -1.22923600      -7.34253400      -0.51259200
C        0.05265400      -7.72877200      -0.49719600
O        0.62071500      -2.20501300      -1.43531500
H        1.15864900      -4.29170300       1.83982000
H        0.88145200      -3.17886300       3.21955400
H       -0.49646100      -3.68387900       2.11875900
H       -0.94851200      -1.96650700       0.57566800
H       -1.24856800      -1.68590500       2.96385500
H       -0.05316100      -0.39723000       3.01726100
H       -0.74859800       1.78398800       1.87209600
H       -2.66345300       3.22911200       1.17543700
H       -5.22700900      -0.11522200       1.25240100
H       -3.31836900      -1.54954000       1.94469800
H       -6.61402000       0.53014600      -2.54804600
H       -9.00973500      -0.00608500      -3.04910600
H      -10.81759100       1.31929400      -2.03972500
H       -6.77560500       4.11891300       0.32347400
H       -8.60018000       5.46856700       1.34586700
H      -11.51129600       3.10320900      -0.63129200
H        1.83202700       0.84964600       2.48822600
H        2.54790600      -0.58806400       1.77369700
H        4.34867400       0.76272100       1.88598600
H        3.34922500       2.28529100       1.70098300
H        2.95443700       0.54186100      -1.75320700
H        3.24888600       2.35264900      -1.73293400
H        0.86235600       1.62749700      -1.37873300
H        1.55846000       2.65871300      -0.09863400
H        7.96641100       0.50929300      -0.34554900
H        8.26510600       1.33513100       1.19894500
H        9.87255200       1.93566500      -1.07892800
H       10.46577500       4.05446700      -2.28386000
H        8.80440100       5.95318000      -2.26559400
H        6.68575900       5.69725200      -1.09466400
H        6.13823300       3.67224900       0.04750200
H        3.96239300      -4.33938400      -0.27631700
H        4.45167900      -6.74129400      -0.38379500
H        2.60162600      -8.33997500      -0.47805000
H       -0.66502100      -4.04384200      -0.34884700
H       -2.50941800      -5.70822300      -0.46827200
H        0.32168500      -8.78798200      -0.54194500
63
Properties=species:S:1:pos:R:3 energy=0.9895411936137477 pbc="T T T"
C        3.89372600      -0.73849700      -2.12031200
C        3.26763300      -1.02595800      -0.79156700
C        2.05361700      -1.68612000      -0.53915900
C        1.94067700      -1.71568300       0.81661100
N        3.04102100      -1.09547200       1.31430900
N        3.84171000      -0.67805900       0.36370400
C        5.05322000       0.03401500       0.57108500
C        6.31022800      -0.51517900       0.58644900
C        7.40329500       0.31381900       0.80195600
C        7.28079700       1.66217900       1.00026900
C        5.99744600       2.22004300       0.98447100
C        4.93470200       1.40106100       0.77253900
O        8.37360700       2.49971800       1.21769200
C        8.16783400       3.89155600       1.41599500
C        0.85146200      -2.35763200       1.58536600
C        1.22619300      -2.18486300      -1.62391700
C       -0.22882500      -2.38267000      -1.25960900
C       -0.59973100      -0.92589400      -1.10337100
C       -0.01543100      -0.38369600      -2.39063400
C        1.06461500      -1.14970700      -2.66788200
N       -1.89855200      -0.59727500      -0.81077500
C       -2.98056300      -0.88407500      -1.67306400
C       -4.20379800      -0.35921800      -0.95924000
C       -4.95165400       0.69372500      -1.41041700
C       -6.05032600       1.17015800      -0.68711200
C       -6.40956700       0.58582300       0.50814000
C       -5.65526900      -0.47340200       0.95683700
C       -4.57508300      -0.93846700       0.24045900
N       -7.49135100       1.01949700       1.30292500
C       -7.28316400       2.04500900       2.29360800
C       -8.78872300       0.44128400       1.12834800
H        5.01317200      -0.61456300      -1.97707700
H        3.53542400       0.18370800      -2.57758700
H        3.83267800      -1.63382900      -2.80712000
H        6.40751700      -1.57652200       0.42914200
H        8.37208200      -0.14729900       0.80876300
H        5.90287900       3.28108700       1.14132300
H        3.94789200       1.86648000       0.76525500
H        7.53013600       4.02918800       2.32897900
H        7.59822100       4.28533300       0.53103100
H        9.10859800       4.44363100       1.49554900
H       -0.11440700      -1.83423400       1.55935100
H        0.80359200      -3.45797000       1.45960400
H        1.15944400      -2.25822900       2.68013400
H        1.64009000      -3.12187800      -2.08831400
H       -0.72548300      -2.72527500      -2.20962900
H       -0.46611000      -3.04898700      -0.47435700
H        0.08122100      -0.45231300      -0.33326900
H       -0.36730100       0.44478600      -2.98386900
H        1.68722200      -1.00206200      -3.53095200
H       -2.13786000      -0.30117600       0.15978500
H       -2.95613500      -0.32283000      -2.63660000
H       -3.10701700      -1.95993800      -1.84421100
H       -4.71550300       1.17890900      -2.32138100
H       -6.64748100       2.00107900      -1.03091600
H       -5.91923300      -0.95106500       1.89083400
H       -4.03508100      -1.77882800       0.66358800
H       -6.93585500       1.51868000       3.23268500
H       -8.21482900       2.56496700       2.57490700
H       -6.48073900       2.74981200       1.98780500
H       -9.01809200       0.31457400       0.04454300
H       -8.76001700      -0.58207700       1.60077400
H       -9.58877000       1.02082000       1.63752800
56
Properties=species:S:1:pos:R:3 energy=0.9820784724121582 pbc="T T T"
C       -4.92944100      -3.24599500      -1.78244300
C       -5.97055400      -2.26786900      -1.37303300
C       -5.75825000      -1.28930400      -0.41585100
C       -6.95208300      -0.61576400      -0.33608900
N       -7.82699700      -1.18571800      -1.21859300
N       -7.22522900      -2.17939000      -1.83732300
C       -7.27602900       0.53865000       0.54084700
C       -4.53581500      -0.99309400       0.36489900
C       -3.59955100      -0.26326200      -0.53634400
C       -2.30701700       0.10906000       0.08818400
N       -1.15955000      -0.58153600       0.12137600
N       -0.22472300       0.08379000       0.77346900
C       -0.79992800       1.25680200       1.17768700
N       -2.07321600       1.25882900       0.75176700
C       -0.05683300       2.16713100       1.88752600
C       -0.59201500       3.35327000       2.31491200
C        0.16806900       4.27523300       3.03839700
C        1.47253900       3.96779600       3.31586700
C        1.99688900       2.77365000       2.88088200
C        1.25642600       1.85014800       2.16284900
N        1.80459400       0.69705900       1.75887100
C        1.06762900      -0.19461700       1.06134800
S        1.72335400      -1.75671000       0.49064600
C        2.42595100      -1.64452000      -1.15029200
C        3.67601500      -0.80634500      -1.20647700
O        3.57169500       0.42999800      -1.37365400
N        4.95183900      -1.40348600      -1.07300300
C        6.19423300      -0.74809700      -1.10441600
C        7.36049100      -1.52915800      -1.12723200
C        8.61507900      -0.98535000      -1.15030100
C        8.75905000       0.39607000      -1.15127100
C        7.63731400       1.18337500      -1.12901900
C        6.35593100       0.59625500      -1.10557000
F        9.99876500       0.97366800      -1.17303900
H       -4.45870000      -3.02753100      -2.73848100
H       -4.15155700      -3.34772800      -0.99155600
H       -5.38052900      -4.27533200      -1.90276700
H       -7.64171100      -2.78417700      -2.55396100
H       -6.96992800       1.51430900       0.09040600
H       -6.85713200       0.42979300       1.57186300
H       -8.39236500       0.61394400       0.69739200
H       -4.09494400      -1.92450500       0.80333100
H       -4.80308900      -0.36934700       1.24166400
H       -4.13234500       0.63474300      -0.91062500
H       -3.43587500      -0.90134600      -1.44822900
H       -1.61504600       3.63028800       2.11673800
H       -0.25898200       5.21509400       3.37640700
H        2.06797700       4.69116700       3.88374700
H        3.04293700       2.59173800       3.13654600
H        1.67868000      -1.13948900      -1.81597900
H        2.67308000      -2.61189800      -1.59983600
H        4.92235400      -2.47851600      -0.93438600
H        7.28386600      -2.62502600      -1.12815500
H        9.51106200      -1.59714400      -1.16691800
H        7.74102400       2.25931100      -1.12971300
H        5.52259200       1.28108300      -1.08306800
63
Properties=species:S:1:pos:R:3 energy=0.9783261227936078 pbc="T T T"
C        6.84391800      -1.91871500       4.18621300
O        5.84879200      -0.91467100       4.15139300
C        5.30054200      -0.57430300       2.92165600
C        4.32903900       0.39200700       2.81256200
C        3.77498700       0.73687600       1.57583500
C        4.18219500       0.11985400       0.41389800
C        5.15590300      -0.84610100       0.53734900
C        5.71322200      -1.19927200       1.74589100
C        3.59933800       0.48131900      -0.86954500
O        4.08475900      -0.05623700      -1.89811300
N        2.53765900       1.38136400      -1.05802800
C        1.98020300       1.72011000      -2.33602900
C        2.02602700       3.14072200      -2.72842700
C        0.60172800       3.64706500      -2.67799000
C       -0.18659600       2.53652400      -1.97204400
C        0.53213000       1.31697800      -2.51050000
C        0.19450700       0.09107900      -1.79049400
O        1.00160000      -0.42387900      -0.96861300
N       -1.02895200      -0.56241600      -1.97509100
C       -1.99855800      -0.05837300      -2.90998800
C       -3.24432800       0.32416200      -2.17140800
C       -3.25722900      -0.13727400      -0.74119400
C       -2.69457800      -1.51028700      -0.54797600
C       -1.41481600      -1.76786500      -1.25836900
C       -4.69370000      -0.12732100      -0.27437800
C       -4.88348500      -0.54903000       1.12135700
C       -4.82152700       0.36757500       2.14564600
C       -5.00541600      -0.01117200       3.48046100
C       -5.25144900      -1.32214600       3.76211400
C       -5.31413800      -2.24195700       2.73882900
C       -5.13149700      -1.86413500       1.41598000
H        6.40942100      -2.85150300       3.74795400
H        7.77676400      -1.64033300       3.69412500
H        7.06290000      -2.15801300       5.24658700
H        3.99047600       0.89338000       3.70613800
H        3.01329400       1.50778300       1.56525900
H        5.49998600      -1.35100600      -0.35085400
H        6.47496700      -1.95148400       1.86071400
H        2.11936300       1.83927200      -0.21844700
H        2.55834200       1.12488100      -3.10165000
H        2.35908000       3.26123100      -3.78866200
H        2.71489000       3.77007200      -2.12983000
H        0.15606900       3.73301600      -3.69124600
H        0.48812300       4.60876100      -2.17930700
H       -0.13979700       2.63107400      -0.88845000
H       -1.24691000       2.60662200      -2.27255900
H        0.33363100       1.26975100      -3.59640800
H       -2.26053300      -0.95005800      -3.55809000
H       -1.64928800       0.69723300      -3.60688800
H       -4.13698600      -0.05549800      -2.70933300
H       -3.32059400       1.42891900      -2.17176400
H       -2.69650500       0.58005300      -0.10771100
H       -2.54098200      -1.69287300       0.53410100
H       -3.44662300      -2.26804200      -0.88409100
H       -0.61744900      -2.11430200      -0.57954900
H       -1.56658300      -2.54518500      -2.03284600
H       -5.27741700      -0.79979100      -0.97355700
H       -5.16620600       0.88475300      -0.45979000
H       -4.62760200       1.41776300       1.95398400
H       -4.94535000       0.75503000       4.24109700
H       -5.39109900      -1.59913700       4.79921200
H       -5.50841300      -3.27283200       2.96767900
H       -5.19924500      -2.64396800       0.66318300
54
Properties=species:S:1:pos:R:3 energy=0.9783261227936078 pbc="T T T"
C       -6.95241000      -0.17423400       1.63519100
C       -6.54762300      -0.22820500       0.17707100
N       -5.12957300       0.07471600      -0.00491600
C       -4.16001500      -0.85215500       0.03163700
C       -4.51166400      -2.16925700       0.26871300
C       -3.50987200      -3.11334200       0.30790600
C       -2.18760200      -2.81664300       0.12503100
C       -1.83571600      -1.50096800      -0.11151300
C       -2.81686900      -0.53865300      -0.15552400
C       -2.41950000       0.76160500      -0.39035500
C       -3.41722600       1.71398900      -0.42738400
C       -4.73224300       1.35313100      -0.23626200
O       -5.63078500       2.25329100      -0.27605200
O       -1.06888400       1.08757600      -0.58052200
C       -0.78590000       2.44899200      -0.81049400
C        0.62581200       2.77172500      -1.00923900
O        0.88921700       4.00242100      -1.19588500
N        1.68232100       1.85691100      -1.00986800
C        3.04706800       2.35930200      -1.21312800
C        3.85187200       1.72666800      -0.06768100
N        3.86265800       0.28836400      -0.33709800
C        2.75304100      -0.29943900      -1.03674700
C        1.45043300       0.45803700      -0.82152700
C        4.93166600      -0.53751100       0.08076600
C        5.86926600       0.01655200       0.95003200
C        6.91328800      -0.81160100       1.33835500
C        7.01194900      -2.11933900       0.88198300
C        6.06454300      -2.62910000       0.02383600
C        5.02160600      -1.81313000      -0.36873600
Cl       8.14222700      -0.19579700       2.43399000
H       -7.46420200       0.81162700       1.81761300
H       -7.71709800      -0.96004000       1.88268300
H       -6.08452300      -0.20356500       2.32216200
H       -6.85147500      -1.20471300      -0.22234900
H       -7.13241100       0.52223600      -0.41350000
H       -5.52225100      -2.50683200       0.42923100
H       -3.79562700      -4.13892800       0.49346100
H       -1.39691900      -3.56344500       0.15610100
H       -0.80502400      -1.22711800      -0.26041500
H       -3.12832900       2.75514300      -0.61256500
H       -1.41473900       2.73012400      -1.70706600
H       -1.23307000       2.99412100       0.06658900
H        3.45047500       2.03028700      -2.18193100
H        3.09570700       3.45198700      -1.14718800
H        4.88497800       2.12838000      -0.11308400
H        3.36890500       1.93121700       0.89193200
H        2.56741500      -1.33625300      -0.63928900
H        2.91861100      -0.31793300      -2.13167900
H        0.74823000       0.04617200      -1.57756700
H        1.01252200       0.28756400       0.16783900
H        5.79607000       1.02945300       1.30860600
H        7.84206600      -2.73956300       1.20610200
H        6.14142300      -3.63136300      -0.32514200
H        4.30818400      -2.26246300      -1.04489800
57
Properties=species:S:1:pos:R:3 energy=0.9669838461896731 pbc="T T T"
C       -4.89340200      -0.53926000       1.46022800
C       -3.86103700      -1.63440900       1.56643800
N       -3.21684000      -1.95464700       0.34069400
C       -4.04691300      -2.57642400      -0.64879500
C       -4.52531600      -3.94795000      -0.34789000
C       -2.52432400      -0.86924600      -0.28439900
C       -1.29989300      -0.38389100       0.43670900
N       -0.71233300       0.72537800      -0.30859000
C       -1.08196300       2.02573300      -0.09324300
C       -0.36391700       2.86524200      -0.93858000
C       -0.56369400       4.24161200      -0.90904400
C       -1.46814100       4.80824900      -0.05315500
C       -2.18583100       3.99104500       0.78768000
C       -1.98401900       2.61694400       0.75667300
N       -1.68752300       6.22980100      -0.01390800
O       -1.06345100       6.99341600      -0.75711000
O       -2.59911700       6.76384900       0.85293700
N        0.42717300       2.05838500      -1.64919500
C        0.20716100       0.76811300      -1.25964100
C        0.92274600      -0.37059300      -1.84410600
C        2.20916700      -0.66630800      -1.12677600
C        2.30773600      -1.69227400      -0.22154900
C        3.48645600      -1.97447300       0.47261900
C        4.59909400      -1.20536100       0.25249500
C        4.53714400      -0.17951100      -0.63902600
C        3.35248500       0.08048500      -1.31718800
O        5.76428400      -1.47144500       0.92914700
C        6.89415500      -0.65822300       0.68400700
C        8.01475400      -1.17784100       1.54964400
H       -4.38856800       0.44654200       1.33753700
H       -5.55051100      -0.52911700       2.35997700
H       -5.57207300      -0.68720700       0.59586100
H       -3.08237400      -1.39611200       2.32012000
H       -4.37659000      -2.54285400       1.93833200
H       -3.42600200      -2.60291000      -1.59578600
H       -4.90812800      -1.92924100      -0.88239100
H       -3.94138700      -4.50330100       0.40095000
H       -5.62569200      -3.93191600      -0.10363200
H       -4.47795200      -4.55360500      -1.28409100