53
Properties=species:S:1:pos:R:3 energy=-3.2184576799749056 pbc="T T T"
O       12.06058100       1.30200000      -2.22003700
C       11.64235800       0.79506600      -1.12134800
C       11.17417800      -0.58784900      -1.02611600
C       10.00725200      -0.81696700      -0.13266000
C        9.60315400       0.33172700       0.72457200
N        8.37124700       0.92536700       0.28114900
C        8.20700200       2.10864800      -0.50980400
O        9.12972800       2.81578900      -0.93587200
C        6.77471700       2.27157400      -0.68245500
C        6.10750200       3.26856400      -1.37730700
C        4.72793500       3.22046800      -1.41225400
C        4.03233500       2.22216800      -0.78204900
C        4.71337900       1.24227500      -0.09763400
N        3.99271600       0.21985400       0.56612100
C        2.53336400       0.22991300       0.44544800
C        2.22179400       0.00000300      -0.99727100
O        2.66718200      -1.14740600      -1.48404600
C        2.33421300      -2.37325200      -1.15790400
C        2.46223200      -2.84845000       0.22542100
O        1.67108700      -2.16336200       1.11095400
C        0.31371900      -2.35611400       0.97873100
C       -0.20838900      -2.05092600      -0.36426400
N       -1.60851800      -2.22234200      -0.56669900
C       -2.62089400      -1.52940300       0.12394300
O       -2.30113300      -0.69128600       0.98722900
C       -4.01950400      -1.80996400      -0.19051800
C       -4.39924000      -3.00256700      -0.80000700
C       -5.71528700      -3.26459100      -1.10848200
C       -6.70128000      -2.32534400      -0.81081100
C       -6.36105600      -1.13402500      -0.20762100
C       -5.01882200      -0.90790000       0.08815300
N       -7.30129300      -0.20847600       0.08486100
C       -8.61324800      -0.39668700      -0.19437600
N       -9.56660700       0.62720000       0.13694500
C       -9.13206100       1.82593700       0.75507600
C       -9.97032600       2.85147900       1.09088300
C       -9.48829200       3.99582300       1.69101200
C       -8.14710900       4.14550400       1.97332100
C       -7.28699600       3.11305600       1.63805100
Cl      -5.56639400       3.19007900       1.94705500
C       -7.79472700       1.97448800       1.03604800
C       -8.95902400      -1.58334100      -0.79562100
C      -10.29554600      -1.79889900      -1.08945100
C      -10.60597100      -3.01669900      -1.69866800
N       -9.67048100      -3.93447200      -1.98809500
C       -8.36408000      -3.74919300      -1.71290800
C       -8.02355500      -2.54653900      -1.10635900
C        6.09341800       1.27072800      -0.05042900
C        7.08114300       0.39004900       0.57733500
O        6.76181100      -0.63233900       1.23994800
C       10.66132000       1.29034300       1.04423600
O       10.76427400       1.86483100       2.17249200
N       11.63019100       1.60545700       0.05512400
29
Properties=species:S:1:pos:R:3 energy=-4.754139814019685 pbc="T T T"
O        4.08050200      -1.73332000       1.03013000
C        3.64011200      -1.45491500      -0.10074500
C        2.50001600      -2.20262200      -0.65246300
C        2.06715200      -3.24033300       0.35763000
C        1.67435300      -2.46031200       1.61609200
N        0.60353200      -1.58430700       1.22872700
C        0.10517100      -0.76743200       2.29771900
C       -1.00166100       0.10813600       1.70929200
C       -2.18151700      -0.79023800       1.43988300
N       -3.17706800      -0.17098000       0.61147100
C       -4.10668700      -0.76129500      -0.15385500
O       -4.29283500      -1.99261300      -0.29928000
N       -4.84326900       0.17788300      -0.77015100
C       -4.39131800       1.38989600      -0.40457700
C       -4.75021900       2.69545500      -0.71083400
C       -4.06636200       3.73110600      -0.15207200
C       -3.00163900       3.52466300       0.73068300
C       -2.65154600       2.22295000       1.02962500
C       -3.34367800       1.15895500       0.46421200
C       -1.77433300      -2.15534300       0.98967500
C       -0.39995700      -2.19062000       0.42239000
C        4.24170600      -0.39547100      -0.88542400
C        3.76490200      -0.07294500      -2.14400300
C        4.32167100       0.93011400      -2.90677300
C        5.40381400       1.66066000      -2.41683900
F        5.98592800       2.64896900      -3.11659400
C        5.89807300       1.35884400      -1.16479400
C        5.32165800       0.35100400      -0.42464400
H       -5.62650300       0.01411100      -1.41730600
27
Properties=species:S:1:pos:R:3 energy=-3.125410597140553 pbc="T T T"
O        3.66133100      -0.96314800      -1.87105900
C        4.14762700      -0.48626200      -0.82348300
N        3.23585800      -0.08729500       0.20085300
C        1.79832800      -0.25092500      -0.02551000
C        1.34640500       0.90555800      -0.83156900
C        0.52950600       1.91520600      -0.03527400
N       -0.39819900       1.27019700       0.81661300
C       -1.52947900       0.80116600       0.08697100
C       -2.37870400      -0.16953900       0.86379500
C       -3.57690800      -0.57313800       0.05415600
C       -3.75572100      -1.65502800      -0.74466400
N       -4.98748500      -1.59570700      -1.30928900
C       -5.59733400      -0.47405400      -0.87395700
C       -6.84889500       0.08342600      -1.11111400
C       -7.17850600       1.25848400      -0.49303900
C       -6.34951000       1.94416800       0.36455000
C       -5.10558700       1.35878200       0.58360300
C       -4.74915400       0.18348200      -0.02336700
C        0.17975100       0.45798500       1.79042600
C        1.12580600      -0.52509700       1.24997000
C        5.58550200      -0.33733800      -0.64286900
C        6.47829600      -0.75739500      -1.60389500
C        7.83756800      -0.61590800      -1.43419700
C        8.35845000      -0.04731600      -0.28623900
C        7.50161700       0.38576600       0.70291400
C        6.12821800       0.22984000       0.50109200
H       -5.45878000      -2.25591100      -1.97451300
74
Properties=species:S:1:pos:R:3 energy=-2.776397243736289 pbc="T T T"
C        3.63757000       6.52221000      -0.22125300
C        2.85262500       6.51004100      -1.52938800
N        2.60044500       7.62281500      -2.15680300
C        1.92028200       7.58470300      -3.29263200
S        1.61177100       5.92260200      -3.50264000
C        2.38666200       5.35265600      -2.09933900
C        2.55732400       3.97308900      -1.58985200
C        3.20352800       3.74056700      -0.40545400
C        3.38667600       2.43203800       0.06646300
C        2.92335400       1.36417000      -0.64997900
C        3.14187600      -0.06225300      -0.16735100
C        2.34444900      -0.34188000       1.04692200
C        0.88334600      -0.14817100       0.80940900
O        0.41007700       0.10837000      -0.31696100
N        0.01308300      -0.25578700       1.91562600
C       -1.43167500      -0.06302200       1.78175800
C       -2.08255700      -0.19806100       3.14177500
C       -1.85355200      -1.57766400       3.66873800
C       -2.55031800      -2.62327500       2.76307900
C       -4.04068800      -2.20526000       2.83050100
C       -4.19035200      -0.83097900       2.25826000
N       -5.55284300      -0.38097100       2.41917800
C       -5.98767000       0.87584600       1.92948100
O       -5.06625500       1.53614400       1.30624600
C       -7.28912500       1.48099300       2.04966000
O       -8.29558000       1.02042800       2.74288700
C       -9.11621900      -0.10265100       2.73587000
C      -10.21091200      -0.16079500       1.94648100
C      -10.60858100       0.93593200       1.02366800
C       -9.80051800       2.03507400       0.86976400
S      -10.64548300       2.95775500      -0.28632900
C      -11.97727700       1.89619100      -0.50819500
N      -13.11140400       2.03029700      -1.37483900
C      -14.15442100       1.04848500      -1.31592800
C      -15.48339800       1.75656200      -1.16929400
O      -15.42074200       3.11451900      -1.40304400
C      -14.64203400       3.45144400      -2.52347700
C      -13.19298300       3.12794900      -2.29522900
N      -11.69934100       0.90975800       0.30576200
C      -11.02857300      -1.27954100       1.94932900
C      -10.73910600      -2.37084200       2.76511700
C       -9.63036800      -2.33350900       3.57486900
F       -9.34990800      -3.40588500       4.37096500
C       -8.83941600      -1.20184900       3.54687600
F       -7.76341900      -1.16716700       4.35002400
N        4.57512100      -0.11932400       0.20768600
C        5.58028700      -0.66370500      -0.59794300
O        5.29891000      -1.14666100      -1.71122800
C        7.02628600      -0.67557600      -0.14870400
C        7.44703000       0.80717800       0.02836800
C        7.48208600       1.26367600      -1.42251700
O        8.52285300       2.14159600      -1.67081000
C        7.57180900      -0.01163800      -2.24224500
N        7.90652400      -1.05049100      -1.21624400
C        8.84527000      -2.04970600      -1.44021200
O        9.36756600      -2.07540500      -2.61773800
C        9.32313300      -3.07791100      -0.51975000
N       10.13711200      -4.02864100      -1.30659600
C        9.76819700      -5.38695600      -1.27821500
O        8.78030000      -5.75911200      -0.60317100
C       10.54245800      -6.38309400      -2.03959500
F       11.62043800      -5.88398300      -2.75074700
C       10.55880700      -7.77965700      -1.54479000
C        9.69576100      -7.44157000      -2.74692800
C       10.28089000      -2.57220200       0.55145800
C        9.75538700      -1.53982000       1.45872800
C       11.60552700      -2.10998000      -0.03053600
C       10.61523600      -3.81059600       1.39810300
C        2.27647900       1.60431700      -1.83639600
C        2.08899900       2.90695100      -2.31336900
H        2.97510900      -0.71754600      -1.00235600
H        7.16527100      -1.18215600       0.76831000
H        6.54000500       1.76178600      -1.70997600
H        8.52879500      -3.62084800      -0.01718700
34
Properties=species:S:1:pos:R:3 energy=-5.623168728138354 pbc="T T T"
C        8.71891200       2.54902000       1.79653400
O        8.62692800       1.97032000       0.50988500
C        7.50254800       1.21156500       0.21692400
C        7.33306900       0.60793900      -1.02301300
C        6.19782700      -0.13337100      -1.25825100
C        5.20765500      -0.31189200      -0.31945600
C        4.02822700      -1.13477900      -0.69270000
C        2.99875300      -0.19889000      -1.29015600
N        2.66453200       0.78201200      -0.27416400
C        1.68306000       1.70993500      -0.77996600
C        0.30733100       1.09091700      -0.74429000
C        0.37363200      -0.39847500      -0.90194900
N       -0.96781600      -0.94241900      -0.85060700
C       -1.74431700      -0.73401700       0.32134500
N       -1.40844400      -0.07690100       1.44567100
C       -2.41284100      -0.09826300       2.32646200
C       -2.56534300       0.41685300       3.59175200
C       -3.74796100       0.22424800       4.26328500
C       -4.77737800      -0.47522700       3.68688700
C       -4.64564800      -0.99830400       2.42339500
C       -3.44304200      -0.80286400       1.73959300
N       -3.00306900      -1.17231000       0.52685300
C       -3.77918700      -1.94253400      -0.43789300
C       -4.56800900      -1.08432700      -1.34022300
C       -4.00779200      -0.65406400      -2.52481100
C       -4.67701800       0.15101400      -3.42551000
C       -5.95529300       0.54649300      -3.14048700
F       -6.66514900       1.34568500      -3.99973100
C       -6.53114200       0.12553400      -1.96025600
C       -5.87235400      -0.67833300      -1.05368500
C        1.15819000      -0.98553500       0.25542800
C        2.10075800       0.05435900       0.85315200
C        5.36688400       0.28242500       0.91196400
C        6.50349500       1.02484900       1.14801900
41
Properties=species:S:1:pos:R:3 energy=-2.2016307123315615 pbc="T T T"
C       -3.16003400      -2.48053600       0.68793700
C       -3.36131300      -2.32679000      -0.82528100
C       -2.15059600      -1.66442200      -1.43126700
N       -1.95466400      -0.38812600      -0.83877800
C       -0.96434300       0.42512200      -1.42549100
C        0.42952300       0.05047200      -1.28922300
O        1.28045200       0.80009600      -1.85146000
N        0.92623400      -1.08848200      -0.57477700
C        0.16568300      -2.06469700       0.16500900
C        1.13398600      -3.11390600       0.57830400
C        0.81338400      -4.38989700      -0.20332900
C        1.08849500      -3.41925300       2.06760500
C        2.46217500      -2.62613800       0.20523900
N        3.69384200      -3.13560700       0.41460900
C        4.79428400      -2.48884300      -0.03582100
C        4.70812800      -1.29544300      -0.72077100
C        5.94058900      -0.60523900      -1.20567300
C        6.47395500       0.35663600      -0.24117300
C        7.41693300      -0.07509800       0.66462900
C        7.97542500       0.76315600       1.61309200
C        7.56351500       2.07156800       1.63895800
F        8.09941000       2.90270300       2.55968700
C        6.61611800       2.52771400       0.73723900
C        6.07275900       1.66053800      -0.20499300
C        3.45056800      -0.77832200      -0.93284800
C        2.29953300      -1.44122300      -0.46931200
C       -3.13507200       0.29674000      -0.40787700
C       -2.95195600       1.79725500      -0.35321900
N       -4.15826000       2.44678200       0.08316700
C       -4.37109600       2.66980600       1.49094700
C       -5.88993700       2.57270300       1.69499200
C       -6.28135200       2.56285700       3.13154800
O       -6.42921600       3.67572100       1.04894100
C       -6.36860900       3.59927000      -0.32749700
C       -5.16554600       2.88495000      -0.81170100
O       -5.07889100       2.68478700      -2.05546000
C       -4.26234900      -0.13075800      -1.31043300
N       -4.54121700      -1.52095500      -1.01320300
H       -3.53769200      -3.33329500      -1.26809400
H       -3.39232200      -0.04749000       0.62009800
H       -6.25052500       1.66564700       1.13358900
40
Properties=species:S:1:pos:R:3 energy=-2.4261443534061735 pbc="T T T"
C       -7.72362200      -2.18087000       0.31917700
C       -6.55307300      -1.39605500      -0.14727000
C       -5.71463700      -1.75899200      -1.08609900
C       -5.79676500      -3.02070600      -1.84437700
C       -4.68208800      -0.73176300      -1.25626400
O       -3.74784900      -0.79006200      -2.07565900
N       -4.93865000       0.31109500      -0.34222000
C       -4.22265100       1.54644900      -0.06134800
C       -3.22585900       1.34780100       1.03800600
C       -4.02140600       0.86522700       2.24316700
N       -4.15708700      -0.57853500       2.21750100
C       -2.84345200      -1.16229300       2.34725100
C       -2.28499900      -0.64212700       3.66653600
C       -1.99841100      -0.74608700       1.19934800
N       -2.17704800       0.52346700       0.66798600
C       -1.54159800       0.82823900      -0.52138800
C       -0.09791700       0.96676500      -0.51895400
O        0.50174200       1.21641900      -1.62884100
N        0.72019600       0.84785500       0.63434800
C        0.33410700       0.63542000       2.01122900
C        1.47243200      -0.16675000       2.56204100
C        1.64446600       0.04771500       4.03984500
C        1.26208300      -1.62818400       2.24692700
C        2.63800600       0.34914600       1.79266800
N        3.95428700       0.30314200       2.05447400
C        4.81575200       0.84589900       1.19429600
C        4.40459700       1.46191000       0.02883100
C        5.41198800       2.06566100      -0.91114600
C        5.88823800       1.01249300      -1.84104200
C        5.25137300       0.76164900      -3.03418600
C        5.68020400      -0.20335500      -3.89844700
C        6.77977800      -0.96268200      -3.59237800
F        7.22667400      -1.93897000      -4.45159500
C        7.44231100      -0.73913200      -2.40610800
C        7.00542400       0.23531900      -1.53870600
C        3.05064800       1.50274300      -0.22858800
C        2.16601700       0.94080200       0.66340000
C       -6.17286600      -0.08862700       0.36719900
H       -2.85089100       2.39643100       1.28134500
H       -2.89945100      -2.27646000       2.36319100
24
Properties=species:S:1:pos:R:3 energy=-0.6937031438306493 pbc="T T T"
C       -6.12974300       1.80062100      -0.71558700
C       -6.01172200       1.48423600       0.74738600
S       -5.43070200      -0.18275000       0.98103000
O       -6.40140100      -1.08548200       0.26401800
O       -5.33218600      -0.54585100       2.41400300
C       -3.87546000      -0.31888700       0.22663100
C       -3.77259000      -0.69570500      -1.08555200
C       -2.51459400      -0.78956300      -1.63988300
C       -1.38301100      -0.51426500      -0.90398500
O       -0.11518300      -0.54204000      -1.23334200
C        0.61580300      -0.19793000      -0.18734200
C        2.06049800      -0.12818400      -0.21467000
C        2.77803600      -0.41844200      -1.34326800
C        4.15455100      -0.34729600      -1.35328400
C        4.84843300       0.02307100      -0.21036400
C        6.23099100       0.09804700      -0.20834400
C        6.85556600       0.47111800       0.95664300
C        6.17945900       0.77064900       2.10941300
C        4.80659400       0.68964500       2.08491700
C        4.13284600       0.31606800       0.92727600
C        2.74615300       0.23752100       0.91375300
N       -0.22208800       0.05759300       0.84425400
C       -1.47639600      -0.13504300       0.41470500
C       -2.74385500      -0.04713100       0.95037900
29
Properties=species:S:1:pos:R:3 energy=-1.0120317020411678 pbc="T T T"
C        6.33118600      -0.72396700       0.47326600
C        5.56832100       0.46552700       0.57577100
C        5.95976000       1.65667900      -0.13600700
O        4.40670700       0.54805000       1.28062700
P        3.25518700      -0.34636200       0.31791400
O        4.02157900      -0.84855200      -0.92827000
O        2.89008200      -1.70373200       1.21467400
C        1.53061100      -1.80968300       1.50737300
C        0.79513200      -1.31837800       0.28797200
O       -0.61495000      -1.53720300       0.42433900
C       -1.09197800      -0.79358800      -0.62896700
N       -2.51990000      -0.48288400      -0.48323800
C       -3.37289700      -1.05519900      -1.26110900
C       -4.65505400      -0.61879500      -1.31555800
C       -5.05780200       0.44821800      -0.52007900
O       -6.21249100       0.86346900      -0.57452500
N       -4.15004100       1.03875800       0.32648500
C       -2.85587900       0.55698400       0.34734500
O       -2.07963300       1.07711000       1.15365900
C       -0.20558300       0.41229100      -0.81831100
C       -0.92179400       1.71942100      -0.86867200
C       -0.62983600       1.58124200      -2.33325600
O        0.25486600       0.52339300      -2.10632200
C        0.77488100       0.21783200       0.26150900
O        2.07752100       0.65683300      -0.15809600
H        1.17394600      -1.66080900      -0.67403300
H       -0.92751800      -1.40282500      -1.55941700
H       -4.36053200       1.85912700       0.90541100
H        0.61610700       0.67704200       1.22276500
32
Properties=species:S:1:pos:R:3 energy=-4.316969959892171 pbc="T T T"
C       -5.49520000      -2.71594500       1.18346600
O       -4.72572700      -1.59919500       0.80627400
C       -5.25180900      -0.32740000       0.65167000
C       -6.59677200      -0.07553400       0.86269500
C       -7.12248100       1.18925700       0.70898000
N       -8.51334100       1.46036700       0.92438700
C       -6.25297700       2.19329200       0.33631600
Cl      -6.91206400       3.80306600       0.13948500
C       -4.90147200       1.93934400       0.12455800
C       -4.37609300       0.67242200       0.27862700
C       -2.95331900       0.39529300       0.05657200
O       -2.20316400       1.34533500      -0.28125900
N       -2.40387200      -0.89959200       0.21069100
C       -0.97309400      -1.06132100      -0.03721500
C       -0.16246700      -0.37287500       1.03989900
C        1.30424400      -0.58427400       0.67776200
N        1.64121100       0.01317100      -0.57591400
C        2.46143100      -0.77910900      -1.43805200
C        3.86089700      -1.00492700      -0.97473200
C        3.96235600      -1.70613400       0.34278000
O        5.31175900      -1.87593800       0.69296500
C        6.19557800      -0.83455700       0.86642500
C        5.76143100       0.45255700       0.69424100
C        6.60200600       1.53506300       0.85493400
C        7.91023800       1.26337200       1.19953400
F        8.79207300       2.28146300       1.37624100
C        8.35243200      -0.01430100       1.37342500
C        7.49251300      -1.07801600       1.20662400
C        0.51848500       0.47332500      -1.34463300
C       -0.65383700      -0.43880600      -1.36151000
O       -0.75252300      -1.27270200      -2.44121500
C        0.08356300      -2.37670300      -2.39808800
20
Properties=species:S:1:pos:R:3 energy=-1.9815571401462615 pbc="T T T"
C        4.81667200      -2.00400100       0.37890700
C        4.48758000      -0.55554300       0.57816800
C        3.47676300      -0.07313000      -0.39171800
O        3.01751300      -0.87185100      -1.23824400
N        3.01026800       1.26066400      -0.39626300
C        2.02215700       1.67149700      -1.36859600
C        0.73277700       0.89079200      -1.26321000
C        0.14893000       1.08903600       0.08888300
C        1.12334400       0.60024100       1.14004500
C        0.20461500       0.39755700       2.32998300
C       -1.01829900      -0.13546900       1.66285800
C       -2.01052600      -0.92277400       2.21749300
C       -3.08016000      -1.32997300       1.45178200
C       -3.12584800      -0.92896100       0.12687200
C       -2.14052900      -0.15255700      -0.40716300
C       -1.04789100       0.27265800       0.34641500
C       -2.48435300       0.09681200      -1.82763100
C       -3.97497100      -0.25340600      -1.87314600
O       -4.10386200      -1.22068700      -0.82215100
H       -0.05418000       2.16909400       0.24523500
42
Properties=species:S:1:pos:R:3 energy=-2.0833397912534575 pbc="T T T"
C       -1.90569400      -4.45552400      -2.30521000
C       -2.54514500      -3.38074300      -1.42581300
C       -1.39980200      -2.61564000      -0.80955000
N       -1.90804400      -1.53440400      -0.05089700
C       -1.46228800      -0.24672800      -0.23192900
C       -0.09215300       0.00305200       0.21572400
O        0.35790700       1.19060600       0.03270400
N        0.74965000      -0.95041400       0.82354000
C        0.52232100      -2.32935800       1.20011700
C        1.85222300      -2.94211000       0.82142800
C        1.94391600      -3.19712800      -0.66927900
C        2.14630800      -4.18136400       1.62905700
C        2.81145800      -1.88889500       1.25097600
N        4.11182000      -1.89450000       1.61160700
C        4.71437400      -0.74623200       1.94940300
C        4.07005000       0.48233500       1.95231600
C        4.78658600       1.73117000       2.33545300
C        5.36962000       2.29983700       1.08405200
C        4.65066400       3.19141500       0.31005100
C        5.16778700       3.72251300      -0.84021400
C        6.44487900       3.35073400      -1.22984700
F        6.97557500       3.86011600      -2.35936900
C        7.16120200       2.46916600      -0.46837500
C        6.62873900       1.93686400       0.69467500
C        2.74307300       0.47677800       1.58263600
C        2.11946900      -0.70066600       1.23495600
C       -3.09076800      -1.84094300       0.63164600
C       -4.30359500      -1.53919200      -0.17994100
N       -4.33602800      -0.12245500      -0.51751400
C       -3.80195700       0.53361900      -1.67740100
C       -4.13221600       1.96722000      -1.52948800
C       -3.89037300       3.08537900      -2.32370000
C       -4.30576100       4.34323800      -1.96054000
C       -4.97963100       4.49759600      -0.77664600
C       -5.21689500       3.39552900       0.00410300
C       -4.80655100       2.12116400      -0.34532900
C       -4.95735100       0.83705900       0.32365400
O       -5.53039000       0.62578100       1.43557900
C       -3.07606500      -3.35951500       0.90363500
N       -3.24928500      -4.06902000      -0.34917000
H       -3.23636100      -2.77223800      -2.00996900
H       -3.10126800      -1.35410300       1.63444500
35
Properties=species:S:1:pos:R:3 energy=-4.969249645260714 pbc="T T T"
O        5.90251400       2.10499400      -2.28332300
C        5.60276500       1.46579000      -1.22849200
N        6.45197300       0.88973500      -0.36142700
C        5.76684000       0.29453600       0.65076500
C        6.14422000      -0.41041600       1.76200400
C        5.15216200      -0.87785700       2.59125000
C        3.81766900      -0.67340000       2.36056300
C        3.45944700       0.04005600       1.23422200
C        4.43246300       0.52177400       0.38291300
N        4.35613800       1.22987600      -0.75433200
C        3.13360800       1.66304900      -1.36033100
C        2.05664300       2.02015100      -0.39480300
C        0.76865300       1.31652200      -0.68064600
N        1.04321700      -0.04952200      -1.00664200
C       -0.15932000      -0.80129400      -0.84242000
C       -1.16268300      -0.37032200      -1.92020200
C       -2.39962600      -1.21480100      -1.65849800
C       -2.94762700      -0.97862500      -0.29795900
C       -3.35852200       0.40783300      -0.02633400
C       -2.99747800       1.12804800       1.09227300
C       -3.41958200       2.42531100       1.28511400
C       -4.22485700       3.07041500       0.37015400
F       -4.65753600       4.34501300       0.53367900
C       -4.59178900       2.35103900      -0.75834000
C       -4.16388900       1.04915800      -0.94515700
C       -3.91799300      -1.98445200       0.17746800
C       -3.80958800      -2.60628900       1.41184300
C       -4.73846400      -3.54005600       1.82236000
C       -5.81939800      -3.90397800       1.03276400
F       -6.71404900      -4.82509400       1.46577900
C       -5.92324600      -3.28380900      -0.19278400
C       -4.98754700      -2.34350700      -0.60632300
C        1.71018200      -0.21436800      -2.26208400
C        2.69470900       0.88625100      -2.55491500
H        7.49999100       0.86824000      -0.40462300
18
Properties=species:S:1:pos:R:3 energy=-2.899966444402713 pbc="T T T"
C        4.07301700       2.60283800       1.79329000
O        2.79467500       2.34947200       1.25031400
C        2.41475000       1.12157800       0.74838700
C        3.30434500       0.06500900       0.76320700
C        3.01811800      -1.19118600       0.28686900
C        1.76983300      -1.44062600      -0.24552600
N        1.14931200      -2.51433800      -0.79198500
C       -0.10193900      -2.17455600      -1.15243600
C       -0.33728100      -0.84270200      -0.84487000
C       -1.57329500      -0.04730100      -1.06129600
C       -2.32958600       0.12149600       0.24103700
N       -3.53124200       0.91868500      -0.04584100
C       -4.44568200       1.23319500       1.01619200
C       -5.67886600       2.03075000       0.83381700
O       -4.12542500       0.77144100       2.16662400
C        0.84583300      -0.39418500      -0.27615300
C        1.17402400       0.84971400       0.21163900
H        1.57940900      -3.45928500      -0.91181200
