42
Properties=species:S:1:pos:R:3 energy=-4.217800047972324 pbc="T T T"
C       -8.23080900       3.47550400      -2.42799500
O       -7.27548600       2.62088700      -1.85103500
C       -7.59063800       1.43637700      -1.20581900
C       -8.87070100       0.97628100      -1.06427800
C       -9.11593300      -0.22116200      -0.40510600
C       -8.07700300      -0.94101200       0.10294400
C       -6.77189800      -0.49990000      -0.02541900
C       -5.64799900      -1.29378600       0.53281100
C       -6.08821400      -2.72404500       0.77425500
O       -6.58051500      -3.28328300      -0.42387300
N       -4.59550100      -1.33733700      -0.48403600
C       -3.29027800      -0.90000100      -0.13153500
O       -3.06797500      -0.49060400       1.02833300
C       -2.20390700      -0.92700400      -1.12219600
C       -2.61099200       0.01238800      -2.25954800
N       -0.97787900      -0.42481900      -0.49116000
C       -0.92646300       0.84190600       0.18161300
C        0.46936400       0.94832600       0.65862300
C        1.13664300       1.95159700       1.38080700
C        2.46284000       1.76403700       1.68425000
C        3.17548800       0.65828700       1.32588700
C        4.58868400       0.56085100       1.70237200
N        5.52941400       0.14802600       0.82066600
C        6.82837100       0.04548200       1.12444300
N        7.81740700      -0.38610600       0.20534400
C        7.40405600      -0.73574600      -1.13531200
C        8.53809200      -1.17286400      -2.00158400
C        8.45178500      -0.41995300      -3.31085700
O        8.49248500       0.93605000      -3.02361300
C        7.32093600       1.39999100      -2.44705300
C        6.53123400       0.31766100      -1.76381100
N        7.21612600       0.37043000       2.37214800
C        6.34963000       0.78986500       3.31179400
C        5.01718800       0.88555900       2.96928900
Cl       3.88803300       1.42895600       4.18343500
C        2.54062600      -0.32154800       0.62565800
C        1.18303500      -0.16301300       0.29767100
C        0.27629800      -1.04126700      -0.43200800
O        0.57269600      -2.16420500      -0.92507100
C       -6.54904600       0.69679600      -0.68627600
H       -5.27423800      -0.90718100       1.49195900
H       -2.04495800      -1.91042000      -1.58437100
42
Properties=species:S:1:pos:R:3 energy=-4.316969959892171 pbc="T T T"
C       -6.91717200       3.32181100      -0.27156100
O       -6.34953400       2.19147500       0.34663700
C       -5.88406700       1.09975800      -0.37140700
C       -5.93212400       1.01808500      -1.74195000
C       -5.46089400      -0.08267300      -2.43562100
F       -5.54616700      -0.08179200      -3.78391400
C       -4.91809000      -1.15231200      -1.76081700
C       -4.86984200      -1.07013200      -0.38347000
C       -4.30204900      -2.17455300       0.42986700
N       -3.43200600      -1.59424000       1.43600400
C       -3.58600200      -1.79646100       2.81774900
O       -4.50938100      -2.50735200       3.23907400
C       -2.64310800      -1.15980400       3.78666600
N       -1.66827000      -0.39199400       3.07085700
C       -1.79075500       0.99813900       2.71003000
C       -0.51768400       1.32626800       1.97983200
C       -0.09826400       2.49085600       1.41894700
C        1.13781400       2.60402900       0.77223300
C        1.95804500       1.49510200       0.70206600
C        3.25122900       1.60871300       0.02691300
N        3.69294100       0.68051500      -0.84019600
C        4.90353200       0.83872800      -1.43809600
N        5.41606500      -0.10712900      -2.35793000
C        6.69005600       0.08087200      -2.97298600
C        7.08242900      -1.00413200      -3.91495000
C        7.96941300      -2.05152500      -3.28809100
O        9.08325700      -1.45012400      -2.71538600
C        8.66166500      -0.70854000      -1.63867800
C        7.77704200       0.44666800      -1.99519100
N        5.64252800       1.92301900      -1.15295300
C        5.24025400       2.85797000      -0.30426900
C        4.01877400       2.72173400       0.31441100
Cl       3.45988200       3.93863100       1.43950100
C        1.51736700       0.32047100       1.27652700
C        0.29562500       0.21700200       1.91319900
C       -0.42393700      -0.85982000       2.59619100
O        0.06850300      -2.03157300       2.70747700
C       -3.43570600      -3.09347900      -0.41587000
C       -2.25826100      -2.23468200      -0.88879900
O       -2.91231600      -4.05795600       0.44415900
C       -5.34344900       0.03589700       0.31160300
H       -5.06733900      -2.77356900       0.93219300
42
Properties=species:S:1:pos:R:3 energy=-1.9977766716578294 pbc="T T T"
C       -2.33503500       0.32198900      -2.84306500
O       -3.62621600      -0.18579400      -3.00452700
C       -4.32037800      -0.83543300      -1.99554800
C       -5.58144000      -1.31286300      -2.20709300
C       -6.28857800      -1.96236800      -1.21497000
F       -7.54332300      -2.43129400      -1.44324100
C       -5.67571800      -2.11666300       0.01177700
C       -4.40117000      -1.64788500       0.26561200
C       -3.78128700      -1.84163600       1.61608300
C       -2.83755500      -3.01551300       1.61288800
O       -1.75538200      -2.77759100       0.76810700
N       -3.14085800      -0.61959900       2.06841200
C       -3.51406200       0.08212600       3.23097900
O       -4.45810100      -0.36591400       3.92932000
C       -2.85642800       1.33149900       3.68992000
C       -2.19111200       1.15106800       5.04253500
N       -1.80524900       1.62311800       2.70351700
C       -1.70547500       2.81802100       1.91830200
C       -0.48847700       2.63103100       1.08713700
C        0.12119200       3.43426100       0.13934200
C        1.26943200       3.05023100      -0.52184900
C        1.87240400       1.83566700      -0.26891700
C        3.08545400       1.41244100      -0.95701500
C        3.66451600       2.23959400      -1.89528200
C        4.83089500       1.85567800      -2.57050600
N        5.40476200       0.66969700      -2.31191700
C        4.83094900      -0.12767900      -1.39535700
N        5.41162000      -1.38393100      -1.10035400
C        6.61480300      -1.78678200      -1.79278500
C        6.30309500      -1.82373900      -3.27280800
C        7.61378100      -1.63298900      -4.01867600
O        8.69904900      -2.07958800      -3.25617900
C        8.93587500      -1.16653300      -2.24991600
C        7.65512200      -0.67990700      -1.60189200
N        3.69097400       0.23852200      -0.73007400
C        1.27013900       1.02963600       0.67480400
C        0.10419500       1.41464100       1.34912400
C       -0.71921500       0.77794100       2.36369300
O       -0.48450000      -0.35068200       2.85073600
C       -3.73825800      -1.01011400      -0.74851100
H       -4.58245300      -2.07641200       2.35543500
H       -3.54798500       2.17952800       3.72276100
39
Properties=species:S:1:pos:R:3 energy=-3.602959890217676 pbc="T T T"
C        6.50048300      -2.41055700       2.76919300
C        7.05476500      -1.21081500       2.10554300
C        8.35355000      -0.77199500       2.28917600
C        8.83877900       0.34686700       1.65794300
C        7.98764900       1.03724200       0.82088800
C        6.68915300       0.63130200       0.61327100
C        5.74486500       1.35840500      -0.28691700
C        6.58030700       2.24919600      -1.18215000
O        7.31671500       3.17195800      -0.45488500
N        5.02119400       0.43978200      -1.13201000
C        3.60201900       0.40008300      -1.09373900
O        3.01974400       1.18567400      -0.30629800
C        2.91487400      -0.56548100      -1.98599100
N        1.48371800      -0.51097300      -1.85644000
C        0.60567300       0.33080900      -2.62275100
C       -0.76956900       0.00719500      -2.10488500
C       -1.96979300       0.53808800      -2.50392400
C       -3.15404500       0.10518300      -1.89659000
C       -3.10726500      -0.84126900      -0.91238300
C       -4.30443200      -1.34653600      -0.22768000
N       -5.28082000      -0.56507600       0.21811500
C       -6.36124900      -1.03447800       0.83733500
N       -7.41884300      -0.23254800       1.32443900
C       -7.49245100       1.18939100       1.22945100
C       -6.34623000       1.88970200       1.92207000
C       -6.49619100       3.37696500       1.60548000
O       -6.30865000       3.58175400       0.24030800
C       -6.22874100       2.39585800      -0.47222000
C       -7.49415500       1.58853200      -0.23112800
N       -6.47059600      -2.37770600       1.02230200
C       -5.52664200      -3.23895000       0.60129600
C       -4.42220500      -2.71571800      -0.03578000
Cl      -3.12309800      -3.76188000      -0.62830100
C       -1.88051800      -1.34804400      -0.54203400
C       -0.69137000      -0.94727500      -1.11638100
C        0.72030300      -1.28485100      -0.94718300
O        1.10788300      -2.14406900      -0.09867600
C        6.24261000      -0.49002300       1.26135900
H        5.06258100       1.97425900       0.34249400
41
Properties=species:S:1:pos:R:3 energy=-4.29630909036197 pbc="T T T"
C       -6.89206300      -1.08869200      -3.82095900
C       -7.23853600      -0.11891500      -2.74832200
C       -8.44472600       0.54228300      -2.80626000
C       -8.77965400       1.44463400      -1.81837900
C       -7.90775300       1.67931400      -0.78107900
C       -6.69821900       1.02617800      -0.70915400
C       -5.80027800       1.32106400       0.43344700
C       -6.62689700       1.93222600       1.54235400
O       -7.61371400       1.00656000       1.87430200
N       -5.24216400       0.08596600       0.98960400
C       -3.83612200      -0.05493500       1.08283900
O       -3.12314800       0.89733600       0.67942100
C       -3.27502500      -1.30167800       1.64417400
C       -3.70558300      -2.51139200       0.83024500
N       -1.82010500      -1.25250900       1.65499800
C       -1.01359500      -1.39217600       2.83123100
C        0.37420400      -1.27188800       2.32707700
C        1.61218000      -1.32199900       2.98095800
C        2.79681200      -1.18214500       2.29001500
C        2.82548700      -0.98646700       0.92516700
C        4.10189000      -0.84375200       0.23666300
N        5.09095900      -0.06409800       0.71004400
C        6.27142700       0.07405500       0.08246000
N        7.30658600       0.91853900       0.62083100
C        8.57291400       1.08873900      -0.01933400
C        9.36045200      -0.16793900      -0.18940900
C        9.37019500      -0.70304500      -1.58825200
O        9.53417500       0.29257100      -2.55171700
C        8.42343400       1.16538800      -2.52372800
C        8.53096300       1.95800200      -1.23916200
N        6.44477800      -0.60644900      -1.06443000
C        5.49064900      -1.39976400      -1.58310000
C        4.27908100      -1.54196800      -0.93959900
Cl       3.00936900      -2.57658500      -1.59806600
C        1.60641600      -0.93694800       0.28003700
C        0.41577600      -1.07640500       0.96673000
C       -0.97188400      -1.06350300       0.53716400
O       -1.36887100      -0.90831000      -0.64790800
C       -6.38631100       0.13516600      -1.69993100
H       -5.03162600       2.03584200       0.13581900
H       -3.64147200      -1.46118600       2.67320800
42
Properties=species:S:1:pos:R:3 energy=-4.316969959892171 pbc="T T T"
C       -3.09450200       3.14785000       3.81219600
C       -2.91969000       2.73167100       2.36517100
C       -4.11829800       2.02285100       1.84900500
O       -5.22730300       2.61550900       1.89663200
N       -4.08855800       0.72002100       1.30634300
C       -5.28299600       0.03869300       0.80250600
C       -5.54886300      -1.15108100       1.69966700
O       -5.75330000      -0.68510400       2.99499200
C       -5.14750200      -0.33347300      -0.61093000
C       -6.16984100      -0.11935600      -1.53727600
C       -6.03499500      -0.47042100      -2.85754700
F       -7.02939300      -0.25952900      -3.74683600
C       -4.87416500      -1.04926600      -3.30581200
C       -3.83861000      -1.27903700      -2.42506400
F       -2.69467400      -1.85433500      -2.88856300
C       -3.99706700      -0.91696200      -1.09908500
N       -1.74621800       1.86386800       2.21382000
C       -1.55722300       0.55543200       2.81895700
C       -0.22226400       0.09305200       2.36418500
C        0.46530800      -1.07974100       2.63346100
C        1.71497100      -1.30953400       2.09834400
C        2.33552100      -0.37274800       1.26647500
C        3.65243200      -0.61577300       0.70301600
N        3.90959100      -0.35990800      -0.58851500
C        5.14953900      -0.58998600      -1.11412300
N        5.31388900      -0.28591300      -2.48693100
C        6.61185100      -0.51070600      -3.09968200
C        7.01629500      -1.96679100      -3.00535600
C        7.24693800      -2.57756100      -4.35205800
O        8.14239000      -1.88938100      -5.13760500
C        7.95294400      -0.51764600      -5.13769900
C        6.63272900      -0.10165700      -4.54238400
N        6.15392800      -1.07561000      -0.37424000
C        5.94454700      -1.34677300       0.92208900
C        4.67896800      -1.11565500       1.47305300
Cl       4.35071300      -1.45167000       3.15838000
C        1.61781900       0.78041200       1.02366800
C        0.36989200       1.03569200       1.54413900
C       -0.58981600       2.12992100       1.46072300
O       -0.42306400       3.19825000       0.79728000
H       -2.73263900       3.63323900       1.78090600
H       -6.16928300       0.71915700       0.92771000
43
Properties=species:S:1:pos:R:3 energy=-3.9251691264778032 pbc="T T T"
C        5.10511600      -3.78644200       1.61655400
O        4.86472100      -2.42050000       1.44561900
C        5.00666500      -1.78196600       0.22501300
C        5.40088100      -2.52784200      -0.86090200
C        5.54785200      -1.89710100      -2.09697800
F        5.93468900      -2.61197900      -3.17731300
C        5.29881400      -0.53457600      -2.22618800
C        4.90451200       0.19390700      -1.12378500
C        4.63481700       1.64843500      -1.23702200
C        4.53389500       2.05076000      -2.71391000
O        3.40431100       1.38647100      -3.21738200
N        3.43629600       2.06600700      -0.58025400
C        3.48313700       3.00164500       0.48130600
O        4.60639200       3.47205300       0.85137800
C        2.30725600       3.49033300       1.21399200
N        1.06793500       2.89912000       0.72211200
C        0.42825700       1.71826500       1.14899900
O        0.87513300       0.97698700       2.06985600
C       -0.78535500       1.52457200       0.36593300
C       -1.75279900       0.50550400       0.41544000
C       -2.81762700       0.57190600      -0.45487000
C       -3.87605700      -0.44713300      -0.47169000
N       -4.42930000      -0.90993100       0.66617300
C       -5.41154000      -1.85098100       0.64703500
N       -5.99736300      -2.34333400       1.83821800
C       -5.57429500      -1.86501500       3.15516300
C       -6.37723900      -2.56587000       4.23693700
C       -6.40974700      -4.06910400       3.97745500
O       -5.38227700      -4.33898300       3.06985800
C       -4.16920000      -3.85644100       3.55763000
C       -4.12462700      -2.34354700       3.30675800
N       -5.89185100      -2.37818800      -0.50575700
C       -5.35514600      -1.93229100      -1.65956500
C       -4.36052300      -0.97975600      -1.64616000
Cl      -3.69707700      -0.43468100      -3.16701800
C       -2.88779300       1.61725800      -1.32281500
C       -1.96500100       2.63068700      -1.40235600
C       -0.86999500       2.56655900      -0.51035300
C        0.28153600       3.46762300      -0.32433400
C       -0.16620700       4.88639700      -0.00526600
C        4.76235200      -0.43288000       0.08693500
H        5.51216700       2.16372700      -0.78420000
H        0.90428200       3.47032600      -1.27324400
47
Properties=species:S:1:pos:R:3 energy=-3.602959890217676 pbc="T T T"
C       -1.57360100       2.11816100      -2.39777700
C       -1.02271800       0.82485200      -2.90432200
C       -1.97477500      -0.31072700      -2.71502000
O       -1.54455600      -1.39082800      -2.23858300
N       -3.34039700      -0.22580400      -3.04702500
C       -4.28926600      -1.33405900      -2.86637100
C       -5.00923000      -1.50956100      -4.18041200
O       -5.66049500      -0.28132700      -4.43844200
C       -5.29190100      -0.99574600      -1.82711000
C       -5.63590700      -1.94096200      -0.88983200
C       -6.54538300      -1.73063700       0.12358900
F       -6.88112800      -2.65926600       1.04139100
C       -7.14186200      -0.47538900       0.18491300
C       -6.83317500       0.49675000      -0.72302600
O       -7.45404900       1.75068900      -0.63011400
C       -8.39054800       1.99605800       0.40127400
C       -7.68163400       1.80624900       1.74893600
N       -8.64850400       2.05922500       2.80388200
C       -9.64465500       0.99266700       2.77997200
C       -7.93998200       1.95434500       4.08324300
C       -5.90801400       0.24468800      -1.73435000
N        0.28386100       0.50066200      -2.36282200
C        1.53421400       0.31652100      -3.05170800
C        2.54154400       0.02845600      -2.00604500
C        3.89465000      -0.22112500      -2.03617500
C        4.65091100      -0.47546100      -0.89257700
C        4.02193500      -0.47994900       0.33811800
C        4.75331500      -0.73478800       1.58496800
N        5.94663800      -0.12502700       1.81563600
C        6.63900700      -0.33237600       2.94590400
N        7.88330500       0.28696000       3.22347700
C        8.54038400       1.20716500       2.32034800
C        9.84154300       1.64878200       2.99781500
C       10.67332100       0.42426600       3.30347000
O       10.14232200      -0.65632700       2.63301000
C       10.01639900      -0.43964100       1.26809200
C        8.91162000       0.56259300       1.01620100
N        6.12592400      -1.16644500       3.86152700
C        4.94882100      -1.81266200       3.71261700
C        4.24584700      -1.58883900       2.54253100
Cl       2.70364100      -2.36658600       2.23066400
C        2.68675000      -0.23414900       0.36936300
C        1.93020100       0.02068700      -0.77646000
C        0.51812800       0.31419800      -0.98629700
O       -0.35408400       0.38788700      -0.07570100
H       -0.90611700       0.91538800      -4.01853000
H       -3.76230200      -2.24572600      -2.53224000
43
Properties=species:S:1:pos:R:3 energy=-2.3359878884928347 pbc="T T T"
C       -9.87919800       1.80996700      -1.53614800
O       -8.86654400       0.86898400      -1.80777500
C       -8.09678000       0.33147900      -0.76177600
C       -8.35193700       0.74150000       0.52500100
C       -7.62635300       0.24508800       1.58313700
F       -7.87390100       0.64807400       2.86809900
C       -6.63838100      -0.67479800       1.30513600
C       -6.35740900      -1.10649300       0.02774700
C       -5.28164900      -2.10639900      -0.26274400
C       -5.86812100      -3.50100300      -0.44277700
O       -6.63557600      -3.81172100       0.67829200
N       -4.47684700      -1.71725700      -1.38166100
C       -3.08616300      -1.46234100      -1.31488600
O       -2.52271600      -1.58561200      -0.20247300
C       -2.35730300      -1.06537700      -2.54159400
C       -2.89894200       0.27558100      -3.01985000
N       -0.94623000      -0.85738800      -2.23133300
C        0.12441600      -1.49999200      -2.93064800
C        1.37786500      -1.01916400      -2.30923100
C        2.71564000      -1.32596300      -2.60358700
C        3.67561200      -0.71185400      -1.84055900
C        3.41524900       0.17417900      -0.81829100
C        4.49535800       0.78756400      -0.05038100
N        5.54199700       0.07991400       0.40907600
C        6.53613300       0.65709500       1.11863300
N        7.61387200      -0.19173700       1.56545900
C        8.69473000       0.40144200       2.32941000
C        9.34184700       1.45351200       1.49413900
C       10.14072000       2.44765500       2.29293600
O       10.06577900       2.20697200       3.66254000
C        8.73617200       2.22539800       4.02288600
C        8.09811400       0.93492800       3.61431300
N        6.54123600       1.96949500       1.40856100
C        5.51840200       2.72459600       0.97344600
C        4.48569600       2.13591100       0.23874300
Cl       3.13385800       3.08118100      -0.34783700
C        2.09611900       0.44544500      -0.56454300
C        1.06389000      -0.14693300      -1.30564400
C       -0.39169700      -0.02283400      -1.23025900
O       -1.03502200       0.68644700      -0.43270100
C       -7.10267900      -0.58924200      -1.00718100
H       -4.62558100      -2.16600700       0.63035500
H       -2.49367800      -1.77029500      -3.37130300
41
Properties=species:S:1:pos:R:3 energy=-5.885528377302878 pbc="T T T"
H       -1.72552600      -3.73436900      -2.45187500
C       -2.60664000      -3.13545400      -2.28381000
H       -2.95013100      -2.70131700      -3.23122900
O       -3.63244100      -3.90838000      -1.75170100
C       -2.27312200      -1.99239300      -1.24957000
C       -1.18564800      -1.10835100      -1.71183000
H       -1.54267100      -0.86053900      -2.81088100
H       -0.37138800      -1.90900400      -2.06342400
O       -0.65332300      -0.09237200      -1.15943500
C        0.02573700       0.13739600      -0.09329600
C        0.49776100       1.61986600      -0.02483400
C        0.27557700       2.36571300       1.09454700
C        0.75521800       3.66414000       1.17818600
C        1.46013900       4.21737000       0.13231600
Cl       2.10080900       5.85812000       0.19672900
C        1.68295600       3.47578400      -1.00128700
C        1.18806500       2.15117000      -1.06542900
C        1.33293400      -0.62852100      -0.16525300
C        2.12340800      -0.89769600      -1.23740800
F        1.74034000      -0.49972000      -2.50119500
C        3.32904000      -1.53722700      -1.04885700
C        3.75929000      -1.91772300       0.21333700
C        5.06149700      -2.65305600       0.38109100
C        6.17273500      -1.94682600      -0.43524200
C        4.93480500      -4.04210100      -0.22786400
O        5.48374800      -2.66657400       1.67938400
C        2.92625200      -1.62856600       1.27275100
C        1.69369700      -0.97531800       1.08738500
C        0.59486800      -0.66981500       1.97806100
O        0.65334800      -0.88136300       3.24085400
N       -0.49681200      -0.12426200       1.24453700
C       -1.77928400       0.11046700       1.83180100
C       -2.41079300       1.38956300       1.73317200
C       -2.70884200       2.17166000       2.81205000
C       -3.36771300       3.40569600       2.76425800
C       -3.75204000       3.86368500       1.50537600
Cl      -4.60314600       5.40556400       1.33877600
C       -3.44195200       3.06443700       0.43765400
N       -2.80613800       1.89013000       0.50921900
C       -3.31682100      -1.70019800      -0.27249500
C       -2.16779400      -2.57961800       0.15543000
36
Properties=species:S:1:pos:R:3 energy=-2.2204460492503136e-16 pbc="T T T"
C        3.63003300      -4.14370000      -1.30436200
C        3.77580400      -2.84435100      -2.05691800
C        3.72573700      -3.04226000      -3.54138200
O        5.00627500      -2.29574300      -1.64777300
C        2.65486100      -1.93464100      -1.66128800
C        1.89129600      -1.21991400      -2.55349300
C        0.87051400      -0.36826900      -2.16555800
F        0.12912100       0.32953900      -3.02220700
C        0.66453600      -0.28120500      -0.80123100
C        1.39731700      -0.98814500       0.09626700
C        2.43929700      -1.85116000      -0.28803500
C        0.70794400      -0.87026800       1.40567600
O        1.06450000      -1.35360000       2.50750300
N       -0.45960500      -0.07904900       1.14641900
C       -1.68887900      -0.25788100       1.92966600
C       -2.62556700      -1.18877600       1.21702200
C       -3.00916900      -0.92914600      -0.09322500
C       -3.87180800      -1.74462600      -0.79071300
C       -4.39676700      -2.88408300      -0.18102000
Cl      -5.48497000      -3.91485900      -1.06869800
C       -3.99274900      -3.10158700       1.11379200
N       -3.13876600      -2.28492600       1.78774800
C       -0.13909600       0.72226300       0.03746500
O       -1.14615500       1.32034600      -0.66592600
C       -1.77342500       2.35948100      -0.17635300
C       -2.60165800       2.51587700       0.99757100
O       -3.84394800       1.82663600       1.08312100
C       -2.84284700       3.98453300       1.48056700
C       -2.04621200       3.04954000       2.29369300
C        0.89941900       1.76758400       0.37892300
C        1.05922400       2.80514500      -0.50139200
C        2.02594500       3.79976100      -0.24563200
C        2.80297700       3.71717900       0.89403000
Cl       3.99653100       4.99829000       1.13285300
C        2.64477600       2.68270000       1.76877400
C        1.67551600       1.69931200       1.49411800
38
Properties=species:S:1:pos:R:3 energy=-2.2204460492503136e-16 pbc="T T T"
C       -0.74806200       5.99276200      -1.15647600
C       -1.89917800       5.13618300      -1.67623700
C       -3.22108600       5.62314500      -1.15715500
O       -1.94446700       5.16694900      -3.06787300
C       -1.62222300       3.74308400      -1.20815800
C       -2.48483300       3.07830700      -0.38504400
C       -2.17088900       1.77954200       0.01964100
F       -3.08440200       1.19966300       0.82293900
C       -1.01248500       1.16050000      -0.39435000
C       -0.15453500       1.84508000      -1.22597600
C       -0.46778300       3.14296400      -1.62988100
C        0.97833500       1.00224200      -1.57619600
O        1.94742100       1.33116800      -2.32164400
N        0.76157200      -0.25285300      -0.90781900
C        1.63945800      -1.36914900      -1.11317400
C        2.84638600      -1.38899600      -0.26498800
C        3.60628500      -0.26105900       0.02794100
C        4.72121900      -0.28632900       0.80341700
C        5.14118700      -1.48034100       1.33915700
Cl       6.57239300      -1.53083400       2.33913800
C        4.39965800      -2.59787100       1.05649700
N        3.29693800      -2.54250400       0.28333500
C       -0.42944900      -0.18099500      -0.09262900
O       -1.34101800      -1.11266600      -0.59452100
C       -0.93354500      -2.42556700      -0.38717100
C       -2.00161200      -3.32048900      -0.97389200
C       -2.30351400      -3.20191100      -2.41775800
N       -2.98520400      -4.22290600      -3.10926400
O       -1.93207000      -2.15746300      -3.01396500
C       -3.19730400      -3.61782900      -0.09598600
C       -2.17175800      -4.65279800      -0.33710700
C       -0.18179800      -0.35770800       1.34547100
C        0.91449000      -0.98286500       1.89469400
C        1.08381400      -1.10638000       3.25888700
C        0.14984600      -0.60250100       4.14680100
Cl       0.29831500      -0.72094900       5.87447700
C       -0.96998600       0.03506000       3.62154700
C       -1.10011800       0.13631600       2.27332100
41
Properties=species:S:1:pos:R:3 energy=-5.885528377302878 pbc="T T T"
H       -3.73274200      -2.75398400       0.28551100
C       -3.01058000      -1.99003400      -0.13334800
H       -2.95906100      -1.19843800       0.59887600
O       -3.66796800      -1.55597300      -1.31336500
C       -1.72276400      -2.68663400      -0.47279700
C       -0.64390300      -1.94966800      -1.21320600
H       -1.05757900      -1.87173100      -2.27711600
H        0.14770400      -2.77800700      -1.40528700
O       -0.01335700      -0.92534000      -0.76580300
C       -0.26326300       0.21107800      -0.20210900
C       -1.35899500       1.06458700      -0.74131400
C       -1.58164800       1.29987800      -2.05683800
C       -2.61522000       2.08815000      -2.46713200
C       -3.45324300       2.66158300      -1.54305700
Cl      -4.80730200       3.69966900      -1.96411400
C       -3.25459100       2.44373700      -0.18083900
C       -2.20516100       1.64457600       0.16258000
C        0.96443400       1.11025600      -0.56872200
C        1.52135900       1.27250400      -1.79000200
F        1.16560900       0.59140300      -2.89681400
C        2.54231500       2.21754600      -1.93515700
C        2.93772400       2.93318200      -0.85192100
C        4.02259400       3.96019300      -0.96924600
C        4.06300100       4.45460100      -2.39693400
C        5.34711600       3.39739800      -0.51812100
O        3.68009700       5.02511300      -0.15681300
C        2.36792100       2.75618300       0.37230500
C        1.35937800       1.81838400       0.50389500
C        0.62522100       1.30315700       1.63779300
O        0.71300700       1.72362300       2.82520300
N       -0.22802000       0.23139700       1.21128900
C       -0.86719800      -0.63662400       2.20831500
C        0.12644700      -1.73085200       2.47441600
C        1.35823200      -1.79663100       1.84469900
C        2.27789400      -2.79671000       2.08385600
C        1.93733600      -3.77252300       3.00014700
Cl       3.10568100      -5.03771000       3.30423500
C        0.71227900      -3.68916500       3.61383300
N       -0.16890300      -2.68844600       3.35200800
C       -1.36515300      -3.90285300       0.31918900
C       -1.99869900      -4.14687800      -0.97809600
38