42
Properties=species:S:1:pos:R:3 energy=0.0147310164129507 pbc="T T T"
C       -8.33063200       1.04438300       2.33228500
O       -8.58779900      -0.27204500       1.94001300
C       -7.92527000      -0.86817700       0.87257500
C       -8.21937600      -2.16134700       0.53461700
C       -7.54112700      -2.73131300      -0.53714500
C       -6.59105500      -2.03824500      -1.26120100
C       -6.30776200      -0.75199500      -0.91449800
C       -5.29648100       0.08511400      -1.63343500
C       -6.04934800       1.13487200      -2.42124600
O       -6.86513500       1.82686100      -1.53541100
N       -4.50762400       0.74615800      -0.62373500
C       -3.09553800       0.60963400      -0.51639000
O       -2.50067300      -0.11181800      -1.32639000
C       -2.44540500       1.36481100       0.58674700
C       -3.12162300       0.93167200       1.87398100
N       -1.02144400       1.17306300       0.62534700
C       -0.03804000       2.22670700       0.49587000
C        1.29764500       1.59235400       0.59185000
C        2.55377700       2.15487900       0.52953400
C        3.69972100       1.37384900       0.64305900
C        3.56210200       0.01310900       0.82090800
C        4.75627400      -0.83649300       0.94389800
N        5.78842500      -0.69186000       0.12630900
C        6.90766100      -1.41222100       0.16177700
N        8.00008600      -1.22050400      -0.74420600
C        7.83215800      -0.16437800      -1.74607200
C        6.62578900      -0.46453000      -2.61229100
C        6.14925800       0.84735700      -3.19821400
O        7.19218400       1.79086000      -3.19692800
C        7.27599400       2.27341600      -1.88272600
C        7.49546200       1.09976800      -0.95191000
N        6.98719700      -2.37309400       1.12048100
C        5.97500000      -2.57054100       1.98071200
C        4.81134900      -1.80382000       1.92515300
Cl       3.50599500      -2.06508700       3.04149100
C        2.29421500      -0.52803000       0.88030000
C        1.14735300       0.23151700       0.76959300
C       -0.28721600      -0.03047600       0.79066100
O       -0.81622000      -1.15694500       0.93400800
C       -6.97711000      -0.18078100       0.14774700
H       -4.63571300      -0.51791500      -2.27769400
H       -2.69705600       2.43123100       0.44401700
42
Properties=species:S:1:pos:R:3 energy=0.0133402438387857 pbc="T T T"
C       -6.48855900       2.41645700      -2.39630500
O       -6.53584700       2.38918400      -0.99226700
C       -6.03023100       1.29237500      -0.27896900
C       -6.08001800       1.27368500       1.08866500
C       -5.58113700       0.19153900       1.79170100
F       -5.64515100       0.20499100       3.13129900
C       -5.01683500      -0.90501700       1.13964200
C       -4.97410300      -0.87057000      -0.24298600
C       -4.37034100      -2.04103900      -0.97268200
N       -3.12091800      -2.43306300      -0.32103400
C       -2.96209400      -3.72774100       0.22976900
O       -3.91224800      -4.55602900       0.15730800
C       -1.69441900      -4.08462100       0.87611400
N       -0.76517100      -2.97051300       0.83275900
C       -0.62401500      -1.92045400       1.82837400
C        0.44285200      -1.06496600       1.29305000
C        1.00520100       0.09743900       1.81936400
C        2.01212900       0.78115000       1.17429600
C        2.46817500       0.28630000      -0.03157100
C        3.52068400       0.92881700      -0.78857400
N        4.61894500       1.35208600      -0.15777000
C        5.63464100       1.96323400      -0.83697800
N        6.81353800       2.42267900      -0.18905200
C        6.90367300       2.21679900       1.24712300
C        8.20510700       2.75270300       1.77892000
C        8.09940600       4.18032700       2.25119600
O        6.99682000       4.41006600       3.04010200
C        5.85907300       4.26101400       2.24848000
C        5.70435500       2.78359700       1.96344800
N        5.51697900       2.13590400      -2.15739500
C        4.42655600       1.71916800      -2.80390300
C        3.37149800       1.09165700      -2.14047800
Cl       1.95298700       0.55622400      -3.02028400
C        1.91021400      -0.87027500      -0.55746200
C        0.90253200      -1.55365700       0.08898700
C        0.14576100      -2.78086600      -0.23728900
O        0.30703400      -3.48519600      -1.26506100
C       -4.01561000      -1.65381800      -2.38964100
C       -3.32333700      -2.84243800      -3.01545300
O       -5.13332100      -1.25900000      -3.11376200
C       -5.47346400       0.21076800      -0.92543400
H       -5.07134400      -2.89890000      -0.93275600
42
Properties=species:S:1:pos:R:3 energy=0.1356365127494989 pbc="T T T"
C        8.89236900      -0.21232100       1.29103200
O        8.22096300       0.48126300       0.23518500
C        6.88675500       0.25377900      -0.04181700
C        6.19557700      -0.65786200       0.71284200
C        4.87262300      -0.90527700       0.46245400
F        4.22611300      -1.81233300       1.22565200
C        4.26056300      -0.20814100      -0.57192500
C        4.90831900       0.70736900      -1.34770200
C        4.23010500       1.43819500      -2.44802900
C        4.00100500       0.58574500      -3.66950900
O        5.19727600       0.12217300      -4.21995900
N        2.91400100       1.85849100      -1.96737100
C        2.69413500       3.23411400      -1.75762000
O        3.62175000       4.04485200      -1.97872100
C        1.39296300       3.73201800      -1.28362400
C        0.88874800       4.75177700      -2.30543300
N        0.47456500       2.60676600      -1.21490900
C        0.19378200       1.77786800      -2.36119700
C       -0.80318300       0.80420400      -1.89407500
C       -1.41693700      -0.20136300      -2.63804300
C       -2.31040800      -1.01161900      -2.01212400
C       -2.60484900      -0.83809700      -0.65677400
C       -3.57659800      -1.73596800      -0.05616100
C       -4.21947600      -2.71114700      -0.79092800
C       -5.15029400      -3.55797100      -0.19896100
N       -5.39784000      -3.39117400       1.10588900
C       -4.77407200      -2.43199100       1.85751700
N       -5.07453900      -2.30607300       3.23591300
C       -6.04786700      -3.19925700       3.83544800
C       -6.19185300      -2.93366700       5.32436900
C       -7.66561300      -3.00742300       5.70857100
O       -8.31659300      -1.97612600       5.07910900
C       -8.23086900      -1.97001300       3.70959500
C       -7.39149600      -3.09178700       3.13605000
N       -3.87502000      -1.62813900       1.24436700
C       -1.99988000       0.15637600       0.08339000
C       -1.08188100       0.98852700      -0.55913900
C       -0.27794500       2.12133400      -0.13222300
O       -0.23705900       2.62354400       1.03369400
C        6.26535000       0.93446100      -1.06158000
H        4.84486500       2.32840900      -2.72661700
H        1.46244600       4.23648500      -0.30117100
39
Properties=species:S:1:pos:R:3 energy=0.0272429668013915 pbc="T T T"
C        9.16249300      -0.60701400       0.20723700
C        7.68789400      -0.56109000       0.07832400
C        6.93096600      -1.36823000       0.90010900
C        5.53418400      -1.35969400       0.81537300
C        4.89077200      -0.54640200      -0.08879400
C        5.62691100       0.26580600      -0.91712300
C        4.93414400       1.15166200      -1.90153300
C        4.52771300       0.29404300      -3.08095300
O        3.61686100      -0.68024700      -2.75845200
N        3.80884400       1.84154000      -1.31126400
C        3.67722500       3.24066000      -1.26318300
O        4.56836500       3.97078400      -1.75091500
C        2.50060100       3.84681300      -0.64416900
N        1.56508300       2.86300900      -0.12866200
C        1.61790400       2.34397700       1.20475600
C        0.50504000       1.38180900       1.32489600
C        0.10197200       0.59026500       2.41927400
C       -0.98335300      -0.23619700       2.27095400
C       -1.69089400      -0.31892500       1.09253600
C       -2.84644700      -1.20266000       0.94369000
N       -3.99673300      -0.81761200       0.36309800
C       -5.03425800      -1.67787400       0.25229700
N       -6.24750800      -1.25025600      -0.36743600
C       -7.38415100      -2.13835900      -0.50739800
C       -7.79144400      -2.55655600       0.89934800
C       -7.97642800      -1.27149100       1.69351400
O       -9.02094400      -0.56785100       1.10778900
C       -8.70972700      -0.11713500      -0.17135800
C       -8.53965100      -1.32603100      -1.06531600
N       -4.95274700      -2.93390500       0.71355800
C       -3.83061900      -3.38015100       1.30408400
C       -2.77005800      -2.49106800       1.41402100
Cl      -1.28744200      -3.04890400       2.18339400
C       -1.27705000       0.46910800       0.02742400
C       -0.17898000       1.32191500       0.13802000
C        0.47198800       2.24205600      -0.77961400
O        0.15314900       2.48357500      -1.97190200
C        6.99860300       0.23358500      -0.80842800
H        5.63772100       1.91704700      -2.28946300
41
Properties=species:S:1:pos:R:3 energy=0.0136187318722216 pbc="T T T"
C        8.37919900       0.75984100       1.61345500
C        7.03641800       0.23342800       1.31286400
C        6.21189900      -0.32372400       2.27555700
C        4.97351600      -0.79531100       1.93014800
C        4.49958500      -0.73498900       0.61691200
C        5.31797000      -0.18380200      -0.32969300
C        4.86013100      -0.10006800      -1.73093900
C        4.98613300      -1.45144400      -2.42637600
O        6.31718500      -1.87368300      -2.32254600
N        3.49444300       0.36818300      -1.81863500
C        3.21913500       1.58809500      -2.47358900
O        4.17486200       2.23644800      -2.96485600
C        1.85640700       2.15605900      -2.61813300
C        1.52437400       2.38892100      -4.07312900
N        0.93021300       1.24562100      -1.98238000
C        0.71058900      -0.10484100      -2.42442500
C       -0.30122100      -0.68828900      -1.51508600
C       -0.85885900      -1.97352900      -1.51744500
C       -1.79819700      -2.33159200      -0.57731800
C       -2.16919200      -1.39077900       0.35944700
C       -3.16619200      -1.76657800       1.35950500
N       -4.19177800      -0.96079600       1.68573000
C       -5.10022900      -1.32388700       2.60914500
N       -6.19693100      -0.49092300       2.97489900
C       -6.31293300       0.79290500       2.30910400
C       -6.45688900       0.64452400       0.81450000
C       -7.62991900       1.49583900       0.38590000
O       -7.52497800       2.80106900       0.80586800
C       -7.46141300       2.94404300       2.18492700
C       -7.46314300       1.59630300       2.86448400
N       -4.94682000      -2.52667500       3.19798700
C       -3.96056900      -3.37644600       2.92839900
C       -3.02118300      -3.00890900       1.97820400
Cl      -1.68259800      -4.04280000       1.54192700
C       -1.61760800      -0.11897600       0.36205100
C       -0.67554300       0.24560200      -0.57794600
C        0.08714900       1.45175800      -0.86298300
O        0.02686800       2.53209500      -0.22618000
C        6.55070000       0.28440000       0.02018300
H        5.50556300       0.65357300      -2.24154200
H        1.87385800       3.14933400      -2.12009500
42
Properties=species:S:1:pos:R:3 energy=0.0133402438387857 pbc="T T T"
C       -2.11576100       0.52667600      -4.78885400
C       -2.50285700      -0.25752000      -3.53671300
C       -3.75127500       0.26801200      -2.98649000
O       -4.81879200       0.30160800      -3.62482700
N       -3.76685800       0.77032600      -1.65751900
C       -4.96645800       1.31100500      -1.03364100
C       -4.69293100       2.80958200      -0.85054100
O       -3.57236300       2.94908800      -0.03547900
C       -5.26484600       0.65780400       0.24006300
C       -6.54036400       0.25590100       0.55915100
C       -6.81506400      -0.36728900       1.77841500
F       -8.05429000      -0.76683500       2.10788400
C       -5.77821600      -0.57377300       2.66218900
C       -4.49522300      -0.18042600       2.36462900
F       -3.51792600      -0.40214800       3.25573700
C       -4.26282300       0.43010500       1.15450700
N       -1.42941800      -0.16176300      -2.55030900
C       -1.00576500       1.04945900      -1.87923500
C        0.10511200       0.65875700      -0.97621500
C        0.87457800       1.40319000      -0.10701600
C        1.87249400       0.82638400       0.64999100
C        2.14348900      -0.54383000       0.56421700
C        3.19762700      -1.15517800       1.36336000
N        4.39208600      -0.54815100       1.45099700
C        5.40362100      -1.08007300       2.18341600
N        6.66493100      -0.47839300       2.30068900
C        7.00707700       0.77089800       1.64905900
C        8.41289300       1.17960500       1.94451500
C        8.99341200       2.13553000       0.95324200
O        8.64966200       1.86541600      -0.35956600
C        7.26244800       1.94070900      -0.47637900
C        6.70814700       0.67505800       0.16867900
N        5.16704200      -2.23607400       2.81783200
C        4.00587900      -2.89889400       2.77839300
C        2.98421800      -2.34309900       2.02697200
Cl       1.40661200      -3.13777900       1.90678000
C        1.35954400      -1.26163000      -0.31158100
C        0.35581900      -0.69739400      -1.07681900
C       -0.60011700      -1.20223400      -2.05588300
O       -0.68259400      -2.41107200      -2.42011400
H       -2.56439400      -1.31861600      -3.84676300
H       -5.76835500       1.23705800      -1.77852000
43
Properties=species:S:1:pos:R:3 energy=0.0197387982357532 pbc="T T T"
C        8.93677200       0.32092300      -2.04851700
O        7.84829800      -0.46473100      -2.49617300
C        6.53511700      -0.18277500      -2.16217200
C        5.54385400      -1.00567900      -2.64617200
C        4.23945300      -0.71862000      -2.30943100
F        3.26970200      -1.53257700      -2.78922500
C        3.93711600       0.37544200      -1.50108900
C        4.92411400       1.20477400      -1.01208600
C        4.56654800       2.36081900      -0.15414600
C        4.15063200       3.56096800      -1.00684400
O        4.00149500       4.69672200      -0.24962200
N        3.61048200       2.05212800       0.86163700
C        3.83508800       2.16812100       2.24710400
O        4.94985100       2.57051700       2.64843100
C        2.79228900       1.82743800       3.20668300
N        1.56200300       1.37794000       2.56567900
C        1.16500500       0.08821200       2.20031400
O        1.84127000      -0.95017200       2.37514200
C       -0.15581900       0.19235100       1.59272900
C       -1.03457100      -0.74578600       1.04882400
C       -2.25594700      -0.42835100       0.51730500
C       -3.15523200      -1.44724200      -0.04739300
N       -4.47111000      -1.44020200       0.24830300
C       -5.32734100      -2.35143400      -0.24514700
N       -6.70781700      -2.30839300       0.09178400
C       -7.66128300      -3.26744900      -0.41599900
C       -9.04614100      -2.96799900       0.11410000
C       -9.45250000      -1.59030100      -0.38818600
O       -8.42638300      -1.01311400      -1.14170900
C       -8.19793100      -1.78196800      -2.27820200
C       -7.72654000      -3.17716900      -1.93887000
N       -4.90457100      -3.32608400      -1.06837900
C       -3.58794600      -3.38740200      -1.40488800
C       -2.71023600      -2.44061200      -0.88955000
Cl      -1.01454800      -2.52066200      -1.32374100
C       -2.61630700       0.90207200       0.53169000
C       -1.80188700       1.86693300       1.04898300
C       -0.55830100       1.50568800       1.58491000
C        0.52747800       2.29714400       2.20625600
C       -0.04030400       3.02958900       3.40753200
C        6.23149700       0.89764600      -1.36339700
H        5.50245900       2.70349000       0.37501300
H        0.88219000       3.04980400       1.44847300
47
Properties=species:S:1:pos:R:3 energy=0.0272429668013915 pbc="T T T"
C       -1.69345300       2.65613000      -0.81590700
C       -1.14717100       1.34147600      -1.39039700
C       -1.93553400       0.21857800      -0.82223400
O       -1.32852700      -0.60327400      -0.06441300
N       -3.31455600       0.05003800      -1.10190300
C       -4.06406700      -1.06010000      -0.52977600
C       -4.46963100      -2.00116000      -1.67627200
O       -5.19146600      -3.08216300      -1.18109900
C       -5.27026800      -0.50066100       0.12219300
C       -5.99951100       0.42639200      -0.58551800
C       -7.13066100       0.99259900      -0.04691000
F       -7.81020100       1.89928000      -0.78715800
C       -7.53279500       0.62845200       1.20651400
C       -6.82772300      -0.30607500       1.96284200
O       -7.25057900      -0.67106600       3.24710700
C       -8.43758200      -0.03833200       3.74002500
C       -9.60079600      -0.35786100       2.81977700
N      -10.80873900       0.26312200       3.28378400
C      -10.75703000       1.70804100       3.16391700
C      -11.98312100      -0.26543900       2.63097500
C       -5.70086600      -0.84693900       1.38215100
N        0.24558500       1.26835900      -1.00203800
C        0.76241600       1.25434600       0.34897500
C        2.24011400       1.15371000       0.15214100
C        3.29214500       1.09115900       1.05066400
C        4.61453300       1.00271400       0.64558200
C        4.93821900       0.97314700      -0.69464300
C        6.32841400       0.87926700      -1.14148200
N        7.23060100       0.04455000      -0.64293500
C        8.51764200      -0.01834700      -1.07491400
N        9.45760900      -0.93412600      -0.51545200
C        9.00764500      -1.81934600       0.54014300
C        8.50667500      -0.96165900       1.68080900
C        7.92733400      -1.82091500       2.77822600
O        7.23245900      -2.90606300       2.25133700
C        6.68439200      -2.48951600       1.02622300
C        7.80253600      -2.59073700      -0.00435100
N        8.88114400       0.81424300      -2.05882800
C        8.02630800       1.69634700      -2.62367300
C        6.72516400       1.74306300      -2.16964200
Cl       5.55555700       2.85923900      -2.85077300
C        3.89451600       1.03504100      -1.59432700
C        2.56077900       1.12417900      -1.18553000
C        1.31711800       1.19563200      -1.93374100
O        1.24040400       1.19135100      -3.20532700
H       -1.28547200       1.33069000      -2.47964700
H       -3.44956100      -1.68429400       0.14550300
43
Properties=species:S:1:pos:R:3 energy=0.0967148917890554 pbc="T T T"
C       -6.04954400      -3.55970300       2.16806700
O       -6.91299800      -2.51167200       1.83254400
C       -6.72709900      -1.66191900       0.74927000
C       -7.68695500      -0.67189000       0.56434500
C       -7.54995700       0.19447900      -0.49201700
F       -8.42015300       1.19201100      -0.76707800
C       -6.46155600       0.04173200      -1.32445900
C       -5.50496900      -0.93507500      -1.15076900
C       -4.36267500      -1.01997800      -2.10549200
C       -4.96919700      -1.45739700      -3.44450800
O       -4.01716600      -1.44089400      -4.45686000
N       -3.86858600       0.32748400      -2.31345900
C       -2.49964100       0.64491200      -2.09412900
O       -1.72991300      -0.27009600      -1.71625100
C       -1.94934600       2.00331300      -2.29243400
C       -2.61875600       3.02021500      -1.39142000
N       -0.55402200       2.00400800      -1.99343900
C        0.52421400       2.40163900      -2.87778900
C        1.76778800       2.22907100      -2.12192700
C        3.06736000       2.45249700      -2.46701600
C        4.10902100       2.22195800      -1.59290600
C        3.87325100       1.74693800      -0.30975700
C        4.99278200       1.51082400       0.59645000
N        5.08920000       0.40030200       1.34103000
C        6.11067700       0.15352100       2.18646000
N        6.16697900      -1.04997900       2.96042700
C        5.10475600      -2.00155100       2.82005300
C        3.74762100      -1.43849700       3.18952400
C        3.52045000      -1.72723500       4.67680500
O        4.79271700      -1.68114500       5.28743700
C        5.42239900      -2.92549000       5.12433800
C        5.33013000      -3.23908700       3.62815300
N        7.07742600       1.08524100       2.27411200
C        7.05498800       2.21790600       1.56631200
C        6.01828600       2.45547300       0.71615600
Cl       5.87091400       3.89669600      -0.26530300
C        2.55803700       1.52092400       0.03921300
C        1.50786100       1.75707400      -0.85248700
C        0.05933100       1.61581700      -0.77003100
O       -0.52418300       1.19536400       0.28432700
C       -5.64810300      -1.79872300      -0.09169900
H       -3.60245500      -1.72670700      -1.77700600
H       -2.10892100       2.36246700      -3.33679000
41
Properties=species:S:1:pos:R:3 energy=0.0027793772774109 pbc="T T T"
H       -4.43947000       2.83915800       2.83524600
C       -3.67864400       2.80296300       2.00887500
H       -3.11224800       3.72760200       1.91070700
O       -4.46921100       2.61717100       0.85076400
C       -2.81355200       1.55946800       2.15539400
C       -1.87527200       1.25003200       0.99632000
H       -2.49475900       1.23695800       0.09131700
H       -1.27021000       2.22029000       0.90594100
O       -1.11232600       0.16820500       1.15830000
C       -0.29061800      -0.27998800       0.17234900
C        0.44105500       0.87763600      -0.39310300
C        1.05790200       1.74079100       0.46999300
C        1.77246100       2.85548600       0.04860500
C        1.85783700       3.09453100      -1.30375500
Cl       2.75613000       4.50209000      -1.88216700
C        1.24443600       2.23243800      -2.15390500
C        0.52339700       1.10772000      -1.75216000
C       -0.77704200      -1.24805700      -0.79862300
C       -1.78101600      -1.13389800      -1.76834900
F       -2.47760800      -0.01043900      -2.00025900
C       -2.05915800      -2.23207900      -2.56349600
C       -1.38479700      -3.42138000      -2.43356600
C       -1.70068600      -4.60140900      -3.28114100
C       -2.89530900      -4.24916100      -4.13375800
C       -2.01370700      -5.78177500      -2.35235700
O       -0.63268900      -4.93980500      -4.08332600
C       -0.40301700      -3.51128100      -1.47617800
C       -0.08365500      -2.45312100      -0.65708600
C        0.92444800      -2.32063500       0.39730600
O        1.69723900      -3.24507300       0.74963300
N        0.81568400      -1.02992800       0.87387400
C        1.58757200      -0.46430400       1.92832600
C        2.94978400      -0.01326900       1.59216000
C        3.66261300      -0.37073100       0.47131100
C        4.94477300       0.07011900       0.19903400
C        5.55324800       0.92018700       1.09625500
Cl       7.18087700       1.54910500       0.84590400
C        4.82354100       1.26782100       2.21037800
N        3.58326000       0.83124900       2.46068300
C       -2.30061600       1.39597700       3.58488600
C       -3.31064600       0.43933700       3.01966700
36
Properties=species:S:1:pos:R:3 energy=0.9999999999999998 pbc="T T T"
C       -1.62251700      -2.58958400      -5.09032300
C       -1.76274200      -1.14311700      -4.59112900
C       -0.73933900      -0.34048200      -5.37952900
O       -3.06799800      -0.76109200      -4.83424600
C       -1.44848700      -1.14353300      -3.13473300
C       -2.30547600      -1.71352100      -2.22640200
C       -2.02150700      -1.71833700      -0.84604400
F       -2.91857100      -2.38337900      -0.10448100
C       -0.86643800      -1.14233900      -0.37267800
C        0.01013500      -0.57638300      -1.29329700
C       -0.30266200      -0.58578300      -2.64518300
C        1.30367800      -0.31205900      -0.63712300
O        2.32731200       0.20553100      -1.12952800
N        1.12120100      -0.78857800       0.70950200
C        2.25875300      -1.25086000       1.52970000
C        3.41058300      -0.34738000       1.16457700
C        4.37854100      -0.91494900       0.30143600
C        5.43899000      -0.16695900      -0.16062500
C        5.56604200       1.16226500       0.22491300
Cl       6.92178600       2.13471500      -0.38469800
C        4.60624400       1.67684300       1.06629000
N        3.55521700       0.91959500       1.51749200
C       -0.28291200      -0.77883100       0.92579000
O       -0.78280800      -1.38360500       2.05766300
C       -1.89079000      -1.02590400       2.51599500
C       -3.27622900      -0.90552100       2.42288500
O       -4.14203000      -2.07411000       2.44195400
C       -3.93509300       0.24031400       1.63865500
C       -4.01126600       0.25607500       3.11252900
C       -0.53265600       0.73102800       1.18944200
C       -0.44147900       1.64230800       0.20526300
C       -0.63721900       3.02190300       0.49890100
C       -0.91503500       3.39974900       1.77088500
Cl      -1.17029500       5.07109700       2.27907600
C       -1.01120600       2.46434700       2.79005600
C       -0.81372900       1.12053700       2.46701700
38
Properties=species:S:1:pos:R:3 energy=0.9999999999999998 pbc="T T T"
C        5.52194800       2.56617600       0.51032200
C        5.22688200       1.08839500       0.43889000
C        5.90177800       0.38428900       1.56331100
O        5.69528800       0.55405700      -0.75629000
C        3.77265300       0.81685900       0.53080200
C        2.96900900       1.40835800       1.48467600
C        1.59234000       1.18031000       1.56486800
F        0.80831700       1.74751700       2.49119900
C        1.03764300       0.31941100       0.63065600
C        1.82731000      -0.25426700      -0.31102200
C        3.21495700      -0.03842700      -0.39910600
C        0.92219700      -0.85867800      -1.31374700
O        1.23008400      -1.50598300      -2.32143100
N       -0.42034100      -0.53652500      -0.86440200
C       -1.51600400      -0.38505500      -1.82081600
C       -1.44541600       1.03004600      -2.34602600
C       -0.46765000       1.86961500      -1.79537600
C       -0.29025900       3.16529000      -2.20099100
C       -1.10723200       3.66553800      -3.19570900
Cl      -0.91536400       5.32832200      -3.76431000
C       -2.05898200       2.82002700      -3.72156300
N       -2.20775000       1.53252500      -3.29031500
C       -0.32485100      -0.34827500       0.53341200
O       -1.30924600       0.36375000       1.16851700
C       -2.44913200      -0.19285300       1.40127500
C       -3.51463800      -0.71293900       0.56521100
C       -4.32109200       0.13395500      -0.36803600
N       -4.10280500       1.55207500      -0.49930600
O       -5.21055100      -0.38402900      -1.05880400
C       -4.46630500      -1.70790900       1.32630200
C       -3.59377800      -2.18231300       0.23829900
C       -0.14866200      -1.66477100       1.25360400
C        0.47480200      -2.72805200       0.71097000
C        0.59744400      -3.91735800       1.44200800
C        0.08879600      -4.00149400       2.69629700
Cl       0.19312000      -5.44196400       3.71128700
C       -0.54503600      -2.90982100       3.24281100
C       -0.65947200      -1.75580200       2.52253000
41
Properties=species:S:1:pos:R:3 energy=0.0027793772774109 pbc="T T T"
H       -3.66941200      -3.33164200      -1.64476800
C       -3.95333300      -2.98612500      -0.62657900
H       -4.42837900      -3.89600600      -0.15641700
O       -4.96010800      -2.03293200      -0.70143800
C       -2.74481200      -2.53772900       0.13441600
C       -1.97584500      -1.31736800      -0.35583300
H       -1.55900000      -1.50432700      -1.37356300
H       -2.67413900      -0.48327300      -0.44124700
O       -0.92794800      -1.14472700       0.51126600
C       -0.08919000      -0.07424100       0.22438200
C        0.97573200      -0.12637900       1.28831100
C        0.49639200      -0.36051300       2.58332400
C        1.41112000      -0.40882800       3.62097500
C        2.75770600      -0.22606800       3.35236000
Cl       3.90868400      -0.29382300       4.69581100
C        3.22895200       0.00356600       2.08491700
C        2.30296700       0.05102700       1.04427500
C       -0.72895300       1.23823200       0.25198500
C       -1.50803000       1.88829400       1.15785400
F       -1.91296500       1.32447300       2.33222000
C       -1.93382600       3.20035500       0.92257900
C       -1.57120800       3.84946400      -0.22347500
C       -1.98210700       5.24269000      -0.53805500
C       -1.01248600       6.21641500       0.09657500
C       -1.91337300       5.46431900      -2.04122100
O       -3.27314200       5.52203700      -0.12225900
C       -0.77719800       3.20008200      -1.16008500
C       -0.36535000       1.89064500      -0.90402400
C        0.41344200       0.99724500      -1.74605500
O        0.93312600       1.22320500      -2.88249000
N        0.51733500      -0.27567100      -1.05232700
C        1.08986200      -1.46288300      -1.64237300
C        2.56068000      -1.59433400      -1.46226700
C        3.41256800      -0.71748600      -2.09331100
C        4.77069900      -0.84685500      -1.95907500
C        5.28739300      -1.87589400      -1.17482800
Cl       7.03247800      -2.04753500      -1.00835200
C        4.39193500      -2.71068000      -0.57626200
N        3.07296400      -2.58837200      -0.70610300
C       -1.89607900      -3.70726900       0.69715300
C       -2.70715200      -2.76108900       1.59400400
38