22
Properties=species:S:1:pos:R:3 energy=3.5667118201397288 pbc="T T T"
C        2.17019900       0.25026600       2.44380900
C        2.98143800       0.32918700       1.21628100
C        3.94434000       1.31509700       1.14805600
C        4.79245400       1.37486700       0.08086000
F        5.73080800       2.33571800      -0.05119700
C        4.63717300       0.41479700      -0.91709800
C        3.65182600      -0.56716500      -0.83751600
C        2.80360500      -0.61751600       0.23060800
O        1.82871500      -1.53993600       0.27829500
C        1.53539200      -2.58272500      -0.65541900
C        0.75554400      -1.99127400      -1.90827100
N       -0.33678100      -1.66614500      -0.97543900
C       -1.30298300      -0.94295300      -1.48670800
C       -2.41076900      -0.25621500      -0.79045000
C       -2.97616000       0.92072400      -1.37743900
C       -4.00973800       1.51172700      -0.68284000
C       -4.54283700       1.11048700       0.49400200
C       -5.66596700       1.79666200       1.10825200
N       -6.58427600       2.34274600       1.57438600
C       -4.00282700      -0.02403900       1.07082900
C       -2.96084900      -0.64828500       0.38365500
C       -0.03830800      -2.86602500      -0.34665600
22
Properties=species:S:1:pos:R:3 energy=3.7796338173824005 pbc="T T T"
C        4.02459000       2.96380200       1.58428000
C        3.68376100       1.85364500       0.61564300
C        2.71180700       0.91551000       0.90122200
C        2.58510900      -0.16666300      -0.03830700
O        1.62545500      -1.09874300       0.20065900
C        1.28185300      -2.36467000      -0.03807300
C       -0.17662300      -2.25353400      -0.72645800
N       -0.70687600      -2.40582700       0.56648400
C       -2.06639200      -2.75125300       0.68304700
C       -2.86839600      -1.59273900       0.23626900
C       -3.27402200      -0.66069700       1.21068200
C       -3.88483200       0.50899200       0.91464500
C       -4.14245500       0.86380100      -0.38421000
C       -4.72366500       2.15007900      -0.68144400
N       -5.23102500       3.13589000      -0.87992200
C       -3.76895200      -0.03431300      -1.39428900
C       -3.15106500      -1.21946100      -1.02055600
C        0.43059000      -2.90251000       1.21162500
C        3.35369700      -0.18720900      -1.08938600
C        4.30897400       0.73217000      -1.38768900
C        4.54410500       1.78959400      -0.56982200
F        5.44436400       2.72413700      -0.75343300
22
Properties=species:S:1:pos:R:3 energy=4.141546163706395 pbc="T T T"
N        6.61335800       3.16405000       1.50507900
C        5.85617600       2.44552400       1.01127600
C        4.90228900       1.55380300       0.41892600
C        5.16889800       0.22702600       0.14904200
C        4.21131000      -0.60047200      -0.42691700
C        2.95651400      -0.11192700      -0.74704800
C        1.93204400      -0.97990300      -1.35847500
N        1.11060500      -1.63796300      -0.34478900
C        0.11816300      -2.48104100      -1.02681600
C       -0.83115200      -1.29695700      -0.93115900
O       -2.08370600      -1.71012500      -0.44975000
C       -3.15058300      -0.84379700      -0.25872700
C       -3.08280500       0.50899700      -0.52397700
C       -4.18555700       1.32442300      -0.31213300
C       -5.37040800       0.81750100       0.16414000
F       -6.43718200       1.65448700       0.36042100
C       -5.43749700      -0.52416400       0.42716200
C       -4.33768200      -1.35574900       0.21917900
F       -4.41175700      -2.67210200       0.47990800
C        0.08907600      -0.73596900       0.15171500
C        2.71846400       1.21215400      -0.46754300
C        3.65143200       2.04220600       0.10018200
22
Properties=species:S:1:pos:R:3 energy=4.268297869345539 pbc="T T T"
N        8.03267900       1.33314600       0.04823600
C        6.98459800       0.86361600       0.09168500
C        5.68033500       0.29413700       0.19509800
C        4.75793600       0.53774800      -0.82595000
C        3.49884400       0.02163800      -0.76051600
C        3.09017900      -0.75042700       0.29036300
C        1.68354800      -1.27007900       0.45778600
N        0.89985400      -0.07789500       0.84965600
C       -0.40109400      -0.37768800       1.20779400
C       -0.90747000      -0.16775900      -0.25923600
O       -1.95874700       0.85157500      -0.13521200
C       -3.27914200       0.41898400      -0.22639700
C       -3.44425900      -0.97480100      -0.37953700
C       -4.74501600      -1.48194800      -0.43967900
C       -5.81648400      -0.60828500      -0.34669200
F       -7.04458000      -1.21134400      -0.35936400
C       -5.63278300       0.74363700      -0.20978100
F       -6.73721800       1.54636900      -0.09905400
C       -4.35212100       1.21758600      -0.15049000
C        0.47073500       0.59549500      -0.35916400
C        3.97635300      -1.00681000       1.29442700
C        5.24385200      -0.49689500       1.26204100
22
Properties=species:S:1:pos:R:3 energy=4.787491742782046 pbc="T T T"
C       -6.65475300       1.75560300      -0.06471600
O       -6.04090400       1.07144700       1.09216300
C       -4.96021900       0.26156200       0.70972600
C       -4.25484000      -0.40881600       1.66878300
C       -3.12743100      -1.19499800       1.25751400
C       -2.78732200      -1.28431100       0.01188000
O       -1.75114300      -1.92183400      -0.73600800
C       -0.59588700      -0.95832700      -0.45865900
C       -0.46595500      -0.40622300      -1.99158000
N        0.89253400      -0.22438200      -1.57893400
C        0.87768200       0.79757300      -0.40632200
C        2.38222000       0.77187800      -0.14319500
C        3.12914200       1.79171400      -0.62896300
C        4.50930800       1.70289500      -0.58817300
C        5.04786100       0.54149400      -0.02905800
C        6.46079500       0.36402000       0.03703500
N        7.59060400       0.17991800       0.12493000
C        4.26842000      -0.48211000       0.46931000
C        2.90206300      -0.40562500       0.42785900
C        0.72217500      -1.53084500      -0.86805900
C       -3.54936800      -0.58341200      -0.99781400
C       -4.59498100       0.16277900      -0.61535900
22
Properties=species:S:1:pos:R:3 energy=3.044522437723423 pbc="T T T"
C       -6.80693300       0.68812600      -1.99440300
O       -6.26768700       0.80690200      -0.70045200
C       -5.12134300       0.12843100      -0.30896800
C       -4.61778700       0.26342400       0.96036500
C       -3.46624500      -0.42109800       1.34608500
C       -2.80853200      -1.24835000       0.46077900
C       -1.57115200      -1.96870600       0.91377700
N       -0.46009900      -1.08510600       0.61000800
C       -0.44655300      -0.84130500      -0.83614500
C        1.07976900      -0.93287600      -0.74738900
O        1.59210300       0.35676200      -0.49205900
C        2.96175800       0.52530600      -0.36959000
C        3.82542300      -0.54253600      -0.49293800
C        5.18949800      -0.37803500      -0.37154400
C        5.75043600       0.85737400      -0.12213700
F        7.10029900       1.01200400      -0.00340100
C        4.89291400       1.92968700       0.00239500
C        3.52872400       1.75744600      -0.12032800
C        2.59558700       2.92008300       0.01446500
C        0.82218200      -1.74533900       0.52770400
C       -3.31143500      -1.38297000      -0.80640700
C       -4.46092400      -0.69922500      -1.19031900
22
Properties=species:S:1:pos:R:3 energy=3.0726933146901194 pbc="T T T"
C        7.16035800       1.68252400      -0.15942800
O        6.61114200       0.39350200      -0.38001600
C        5.26885900       0.16087300      -0.49614800
C        4.29747100       1.10578000      -0.37645500
C        2.93372500       0.83618200      -0.56328500
C        2.67665900      -0.48491200      -0.80829100
C        1.23955000      -0.87773100      -1.15767400
N        0.78327300      -1.46352800       0.10866900
C       -0.48528600      -1.97544800       0.07296500
C       -1.08619100      -0.68794100       0.51749000
O       -1.40604600       0.06616700      -0.72137100
C       -2.73377100       0.51819100      -0.49234800
C       -3.11747500       1.67252700      -0.14501100
C       -4.46884600       2.01732600       0.01582500
C       -5.33873200       0.96557800      -0.19738300
F       -6.68027500       1.29983400      -0.30789900
C       -4.95682000      -0.31286200      -0.49925700
C       -5.95252100      -1.41781000      -0.40330200
C       -3.60106300      -0.59415000      -0.67721700
C        0.36010300      -0.35103700       0.97062100
C        3.59065400      -1.35092100      -0.89790100
C        4.90523300      -1.20214400      -0.80178900
22
Properties=species:S:1:pos:R:3 energy=3.591817741270805 pbc="T T T"
C       -7.48613900       1.19086900       0.05925700
O       -6.98573200       0.07823600       0.80974800
C       -5.62642900      -0.14653000       0.74148700
C       -4.81435400       0.65264600       0.03115600
C       -3.43588100       0.43797900      -0.04825100
C       -2.82984400      -0.66612900       0.64254900
C       -1.50342500      -0.96316400       0.50107000
N       -0.28930500      -1.17141100       0.63566300
C        0.29615400      -1.59635600      -0.73518700
C        0.88987200      -0.14236700      -0.68314100
O        1.98834700      -0.16299400      -1.52987000
C        3.25597800      -0.01738500      -1.02042400
C        3.26988400      -0.08008900       0.39789600
C        4.48497900       0.01772000       1.07673700
C        5.61186700       0.16259600       0.34182300
F        6.79256600       0.21147700       1.05792200
C        5.59340500       0.23191200      -1.00629200
C        4.38589300       0.14253300      -1.73937900
F        4.34152500       0.22546500      -3.07362800
C        0.84089500      -0.26537900       0.72601700
C       -3.70433100      -1.48646800       1.37994400
C       -5.07592600      -1.23976600       1.43490200
22
Properties=species:S:1:pos:R:3 energy=3.4011973816621555 pbc="T T T"
C        7.03041400       0.19590200       1.85343300
O        6.87684100      -0.18470000       0.51625800
C        5.64222300      -0.16131500      -0.06781200
C        5.46241700      -0.53025900      -1.38058500
C        4.23294300      -0.51472700      -1.98780500
C        3.13208900      -0.11632600      -1.26374300
C        1.77763200      -0.09107800      -1.90578800
N        0.76268900       0.34856400      -0.99986000
C        0.59546200      -0.46023100       0.18902700
C       -0.87224500      -0.67779400      -0.08285400
O       -1.72810300       0.18969800       0.66266500
C       -3.09573000       0.06475900       0.48002800
C       -3.67996500      -0.84314200      -0.37492800
C       -5.06130400      -0.90811600      -0.50373700
C       -5.86011400      -0.06513900       0.22237100
F       -7.21041900      -0.10607000       0.11698300
C       -5.29526700       0.85934700       1.09142900
F       -6.07556500       1.68413700       1.80193900
C       -3.91989600       0.90143000       1.19912400
C       -0.54707100      -0.07314400      -1.43339600
C        3.29985200       0.25351700       0.04554700
C        4.53311500       0.23468500       0.64390900
22
Properties=species:S:1:pos:R:3 energy=4.787491742782046 pbc="T T T"
C        6.23414000       1.57477000      -2.66841200
O        6.28319300       0.97774700      -1.39565800
C        5.11235600       0.67240900      -0.67645300
C        5.20334500       0.08704300       0.56902300
C        4.05992100      -0.22573800       1.30256800
C        2.80417300       0.04336400       0.79929100
C        1.60107100      -0.30017200       1.60192800
N        1.14276200      -1.66026500       1.30550000
C        0.81482000      -1.71711200      -0.12645400
C       -0.44482500      -0.91811100       0.22709100
O       -1.54325900      -1.28360000      -0.55647500
C       -2.75666200      -0.64963100      -0.35540900
C       -2.96901500       0.32736000       0.56995900
C       -4.21663600       0.92971500       0.72582500
C       -5.27927900       0.55031200      -0.05874100
O       -6.54537000       1.09650100       0.03253700
C       -6.90914400       2.10183900       0.93081700
C       -5.05035100      -0.44092000      -0.99259300
C       -3.81907000      -1.04034600      -1.15151700
C       -0.30908400      -1.69464400       1.54242500
C        2.72728500       0.62817800      -0.44580400
C        3.85963100       0.94130300      -1.17944900
24
Properties=species:S:1:pos:R:3 energy=3.8918202981106265 pbc="T T T"
C        0.97677600       0.28331100       1.72746100
C        2.39339000       0.10726900       1.35324900
C        3.36249200       0.19872700       2.37113100
C        4.69040200       0.04626500       2.09583400
C        5.05321100      -0.19907700       0.79605100
C        4.09734900      -0.28387100      -0.17537900
C        2.72177200      -0.13476900       0.05669400
C        1.83727500      -0.25488200      -1.09256600
N        2.28478500      -0.50243400      -2.36461300
N        1.27325600      -0.55791900      -3.18669700
C        0.14639700      -0.35516400      -2.51205500
N       -1.13714700      -0.31768600      -2.90669900
C       -2.10281700      -0.09353600      -2.02563300
C       -1.77774000       0.10478600      -0.67640700
C       -2.87380700       0.34776600       0.25480800
C       -4.17395100       0.37963500      -0.18158900
C       -5.24494900       0.60474100       0.65423900
C       -5.00244000       0.80801100       1.99321300
C       -3.72398900       0.78578600       2.47709400
F       -3.43092800       0.98275900       3.80259600
C       -2.66947600       0.55530300       1.60099200
N       -0.49789100       0.06776800      -0.28078000
C        0.48685500      -0.15847200      -1.16520500
H        3.31117700      -0.62666700      -2.61573700
26
Properties=species:S:1:pos:R:3 energy=4.328098292648326 pbc="T T T"
C        6.63970300       2.19803400      -0.08976500
O        5.32461700       2.35285000      -0.58858900
C        4.27995700       1.53624300      -0.18656100
C        4.46783900       0.52140800       0.72812100
C        3.43715600      -0.28465200       1.12509000
C        2.12167200      -0.14238200       0.63681200
C        1.11320500      -1.06691700       1.14059100
N        1.35862700      -2.06026100       2.05290400
N        0.27899500      -2.74003800       2.32890600
C       -0.71899100      -2.21811100       1.60692300
N       -2.02928100      -2.49640500       1.47749600
C       -2.84205900      -1.80187900       0.66061700
C       -2.36085700      -0.74709900      -0.10101000
C       -3.22627600       0.01427900      -0.98936200
C       -4.54676300      -0.32776500      -1.06750000
C       -5.42288000       0.37060500      -1.90532100
C       -4.94561000       1.42057800      -2.66393900
C       -3.61495600       1.78414100      -2.60124100
F       -3.18689000       2.80625600      -3.34994400
C       -2.77300800       1.06407000      -1.75452500
N       -1.05938600      -0.48702600       0.04143300
C       -0.21825000      -1.15492800       0.84361300
C        1.95344000       0.85778800      -0.25991900
C        0.63378400       1.12319000      -0.85396500
C        3.00724100       1.69253000      -0.67480000
H        2.32897400      -2.21450800       2.45484500
25
Properties=species:S:1:pos:R:3 energy=4.787491742782046 pbc="T T T"
C        1.04003200       1.92766600      -0.04279800
C        2.34399600       1.39504800       0.48568800
C        3.18480900       2.26447700       1.17262400
C        4.41830600       1.86682400       1.62106000
C        4.81988900       0.58773100       1.38270300
C        4.00508000      -0.27795900       0.71075200
C        2.74450700       0.12837800       0.25403000
C        1.92364100      -0.87706100      -0.37600100
N        2.41665000      -2.02901300      -0.96045000
N        1.45050700      -2.76268700      -1.41550200
C        0.25954300      -2.18547500      -1.18168600
N       -1.00507200      -2.54122300      -1.43721300
C       -1.98836100      -1.72985300      -1.04274700
C       -1.74474900      -0.51499400      -0.36720400
C       -2.92682800       0.21726500       0.04725100
C       -4.15435200      -0.00735900      -0.59153600
C       -5.31667900       0.62762800      -0.23123800
C       -5.31591200       1.53566100       0.80289300
C       -4.13147800       1.77731900       1.44943400
C       -2.94755700       1.11608400       1.06767600
C       -1.75636700       1.37665900       1.84103000
N       -0.82326700       1.57610700       2.48897300
N       -0.48238400      -0.22842800      -0.15235400
C        0.56241700      -0.99058400      -0.52035700
H        3.42363100      -2.25221200      -1.01472500
23
Properties=species:S:1:pos:R:3 energy=4.485259889315534 pbc="T T T"
C       -4.54354100      -0.60222400       0.71172500
C       -3.67658600       0.54876200       0.30706400
C       -4.32305000       1.77348100       0.08920600
C       -3.59001900       2.86716200      -0.28300000
C       -2.23403000       2.69973400      -0.42508300
C       -1.60387000       1.50457300      -0.21238500
C       -2.33149700       0.36384000       0.17082100
C       -1.63179600      -0.88723700       0.38804600
N       -2.09383100      -2.07501800       0.74706100
N       -1.08249000      -2.96987100       0.83309700
C        0.07521000      -2.37074500       0.52656400
N        1.36395600      -2.74364400       0.44474500
C        2.31037500      -1.85792500       0.09537200
C        1.97818400      -0.56164000      -0.18295400
C        3.01977800       0.39520700      -0.56298100
C        4.34490200       0.02433600      -0.65030000
C        5.32387200       0.93197400      -1.00954700
C        4.97349700       2.23796200      -1.28775100
C        3.65866600       2.63717800      -1.20889500
C        2.71021600       1.70817100      -0.84846200
N        0.70019000      -0.18527500      -0.10345800
C       -0.26089600      -1.06641500       0.24675900
H       -3.08723900      -2.37238800       0.95603100
25
Properties=species:S:1:pos:R:3 energy=3.9396381724611196 pbc="T T T"
C       -5.27687300      -2.71531100       2.30985400
O       -5.43162400      -1.48255200       1.65117600
C       -4.32505000      -0.80033100       1.10917500
C       -4.47544000       0.40237300       0.46647600
C       -3.39686300       1.04620500      -0.05012600
C       -2.08779100       0.55292000       0.02777700
C       -1.03597300       1.36936100      -0.58034200
N       -1.27401900       2.56748500      -1.20758000
N       -0.14352900       3.05768000      -1.64699200
C        0.87297500       2.24592600      -1.34933700
N        2.22012000       2.31453800      -1.58783500
C        2.96723900       1.30186500      -1.13895700
C        2.45130600       0.21649200      -0.46183900
C        3.33313700      -0.86717600       0.00625700
C        4.67993200      -0.77911400      -0.24306000
C        5.57112400      -1.76551900       0.16985700
C        5.11460500      -2.86778600       0.84760900
C        3.76990300      -2.97029400       1.10460700
C        2.88900700      -1.97296600       0.68411200
N        1.13389200       0.18691100      -0.24935600
C        0.32047400       1.17104200      -0.67257900
C       -1.95541400      -0.63680800       0.66598100
C       -0.61444400      -1.25081100       0.80587400
C       -3.06232800      -1.31533400       1.20598800
H       -2.24436500       2.99120200      -1.29748500
25
Properties=species:S:1:pos:R:3 energy=4.787491742782046 pbc="T T T"
C        1.35976100       3.33443700       0.29798400
O        1.57117000       1.93866900       0.20376200
C        2.84979800       1.38729600       0.17074200
C        3.96103400       2.21010700       0.23063400
C        5.23467000       1.68478700       0.19937000
C        5.35782300       0.31558600       0.10664100
C        4.24272800      -0.49890800       0.04730100
C        2.96308000       0.01715200       0.07791400
C        1.79169700      -0.85443900       0.01446400
C        1.98934500      -2.22379100      -0.07810500
N        0.97436500      -3.09970700      -0.14132600
C       -0.31322200      -2.63549700      -0.11423300
N       -1.50507800      -3.20809200      -0.15742200
N       -2.44901300      -2.24936500      -0.09544200
C       -1.90010600      -1.04268400      -0.01132600
C       -2.47086600       0.29649900       0.07788200
C       -1.62598200       1.41580400       0.15712700
C       -2.13616400       2.68030500       0.24146400
C       -3.49001200       2.91368400       0.25256800
C       -4.31718200       1.81154700       0.17455500
C       -3.81832400       0.52283800       0.08852800
C       -4.81781000      -0.55803400       0.01135500
C       -0.52019500      -1.28041500      -0.02266700
N        0.53570900      -0.42542700       0.03927300
H       -3.46722700      -2.45235300      -0.11284800
25
Properties=species:S:1:pos:R:3 energy=4.787491742782046 pbc="T T T"
C       -5.83408400      -0.86122300       1.05366000
O       -4.46923700      -0.84529600       0.71049200
C       -3.64204200       0.19291700       1.03833100
C       -4.16318500       1.28177300       1.73977100
C       -3.37894300       2.35424500       2.09651700
C       -2.05355600       2.29353200       1.72358200
C       -1.54291900       1.22244200       1.03410500
C       -2.32351000       0.14173100       0.67212600
C       -1.69238600      -0.94698200      -0.05755900
N       -2.28144900      -2.06872700      -0.49025000
N       -1.32368800      -2.77227900      -1.10338900
C       -0.15442000      -2.15568500      -1.08326000
N        1.09793600      -2.41119800      -1.53884900
C        2.11075000      -1.57061600      -1.36174300
C        1.90488700      -0.37065300      -0.68361000
C        3.00404400       0.57092700      -0.47611300
C        2.76878300       1.74544300       0.19635000
C        3.75778100       2.68097900       0.42907000
C        5.02900700       2.41185300      -0.03847300
C        5.30729800       1.24826600      -0.71632200
F        6.54013300       0.97595600      -1.17563900
C        4.28595600       0.34943700      -0.92159000
N        0.66980900      -0.10012800      -0.22465100
C       -0.33888600      -0.96844700      -0.41726700
H       -3.27807800      -2.39826600      -0.40529100
24
Properties=species:S:1:pos:R:3 energy=4.241326752570746 pbc="T T T"
C       -0.06072700       2.98793700       0.24470200
O       -0.60344500       1.71123600      -0.01230200
C       -1.89899500       1.54087700      -0.42855500
C       -2.64158900       2.72590700      -0.57921300
C       -3.95458100       2.68405200      -0.99210100
C       -4.49504200       1.44177700      -1.24603900
C       -3.79811000       0.29132200      -1.10726900
C       -2.46343200       0.33559200      -0.68744300
C       -1.73527300      -0.91820500      -0.54603100
N       -2.27029100      -2.14497900      -0.79710800
N       -1.36895800      -3.06162200      -0.57855700
C       -0.21494800      -2.51992700      -0.18119800
N        0.97610000      -3.02109300       0.15625600
C        2.01075100      -2.25899200       0.53145200
C        1.78963900      -0.88785300       0.55638500
C        2.89055200       0.01533800       0.96193200
C        4.10599600      -0.53150100       1.30386800
C        5.17605900       0.25499700       1.69179500
C        5.06289300       1.62888600       1.75062100
C        3.84134300       2.16949900       1.40635300
C        2.77074800       1.37764400       1.01789300
N        0.59866200      -0.40648000       0.21759800
C       -0.44277100      -1.13622200      -0.15749800
H       -3.27458100      -2.27819200      -1.11973900
21
Properties=species:S:1:pos:R:3 energy=4.787491742782046 pbc="T T T"
C        5.67777000       1.90170800       0.05911500
O        5.54833200       0.55163300      -0.31122100
C        4.90328600      -0.18798400       0.69608400
C        4.83064200      -1.61527000       0.21357700
O        4.11241200      -1.68056800      -0.96306100
C        2.82881700      -1.26040400      -0.78074300
C        2.06261600      -2.07260500       0.23773200
C        1.26716600      -1.16040100       1.14395300
N        0.56228900      -0.20557100       0.33423300
C       -0.85803000      -0.11307400       0.35289500
O       -1.49439100      -0.88890800       1.09767100
N       -1.58740800       0.80620600      -0.42304700
C       -2.99545700       0.89612500      -0.40295300
C       -3.64704300       1.81910400      -1.18786000
C       -5.04654800       1.88455300      -1.14634600
C       -5.76527000       1.03658100      -0.33063600
C       -5.12207400       0.12321100       0.44621300
F       -5.72878600      -0.74794300       1.27476700
C       -3.72982200       0.06879000       0.39528500
C        1.36940400       0.66709100      -0.51003200
C        2.81209600       0.17772700      -0.34372700
22
Properties=species:S:1:pos:R:3 energy=4.787491742782046 pbc="T T T"
C       -4.90474500       2.32068500       0.57489000
C       -5.20587100       1.21449200      -0.41902700
O       -4.05027700       0.81405600      -1.08400300
C       -3.16077400       0.35575000      -0.12824900
C       -3.73381900      -0.81088500       0.64010500
O       -4.00993000      -1.83842100      -0.23123700
C       -2.91432600      -2.31192900      -0.92408700
C       -2.22858900      -1.29807600      -1.77308700
C       -0.73990700      -1.27379200      -1.65015700
N       -0.30529600      -1.28992000      -0.28710800
C        0.87764700      -0.65809100       0.13016800
O        1.20505200      -0.70774500       1.33950300
N        1.74945800       0.04897700      -0.73842700
C        2.94702600       0.67810800      -0.26478900
C        3.33880900       0.64429100       1.05712400
C        4.49741700       1.25790700       1.49127900
C        5.28060500       1.92202600       0.57057000
C        4.91515200       1.97274500      -0.75590100
F        5.73998300       2.64524300      -1.59439700
C        3.76260000       1.35401100      -1.14722300
C       -1.11745700      -1.98240000       0.68693600
C       -1.94275800      -3.05703200      -0.03510100
20
Properties=species:S:1:pos:R:3 energy=4.787491742782046 pbc="T T T"
C        6.86656600       0.14632500      -0.18697700
O        6.09004600       1.28885400       0.05891800
C        5.36060800       1.55138900      -1.10116800
C        4.49883600       0.32208800      -1.35741400
O        3.67772700       0.16591500      -0.24810200
C        2.83455000      -0.92114700      -0.34450500
C        2.00980200      -0.96013800       0.92688100
C        0.89813000       0.07652700       0.73192700
N       -0.03130500      -0.52685100      -0.20624300
C       -1.42196100      -0.28913100      -0.17238100
O       -2.12560500      -0.86710800      -1.03537000
N       -2.07624700       0.54390900       0.75258700
C       -3.49031200       0.76024400       0.75502600
C       -4.33655500       0.17293900      -0.14688600
C       -5.67911500       0.43574000      -0.07223300
C       -6.18805500       1.27236500       0.88493400
C       -5.34371500       1.87262600       1.80280900
C       -4.01126300       1.59400200       1.70628100
C        0.54282600      -1.40594400      -1.20459800
C        1.92504100      -0.87595900      -1.54348600
21
Properties=species:S:1:pos:R:3 energy=4.787491742782046 pbc="T T T"
C        6.65260000      -1.20517500      -0.37007200
C        5.37432600      -0.55747200      -0.84505000
O        4.24664900      -1.27723100      -0.40700600
C        4.26003100      -1.30117600       0.97021300
C        4.18760600       0.01325800       1.58451900
O        3.16480900       0.78870300       1.39487200
C        2.67027500       1.27110100       0.25235600
C        2.13480300       0.28746600      -0.68913800
C        0.67778100       0.01092800      -0.62344500
N       -0.06359400       0.80111700       0.29949700
C       -1.48288700       0.70045300       0.27915000
O       -2.22889700       1.36513900       1.06335900
N       -2.17477400      -0.15727300      -0.62652000
C       -3.57626600      -0.26775500      -0.65884800
C       -4.17207800      -1.11285000      -1.55685500
C       -5.53735800      -1.20949700      -1.57609900
C       -6.29772800      -0.46762700      -0.70521500
C       -5.70778300       0.37433100       0.18969000
C       -4.33559800       0.47096300       0.20847900
C        0.52082500       1.70970900       1.26845300
C        1.68725800       2.39035900       0.54766000
24
Properties=species:S:1:pos:R:3 energy=4.461299815568389 pbc="T T T"
C       -4.17759000       2.44082500      -1.96412000
N       -3.71058800       1.73852200      -0.79519900
C       -2.87972800       0.59923700      -0.84634800
O       -2.52587200       0.17125700      -1.97456000
C       -2.42252500      -0.09243800       0.37745100
C       -1.63152000       0.92395000       1.19144600
N       -0.27480500       0.65408000       0.74806500
C        0.66533000       1.63138300       0.39471400
O        0.36482600       2.84222800       0.44730200
C        1.99389700       1.22658100      -0.03385600
C        2.95996500       2.16849700      -0.39447400
C        4.20313100       1.72551600      -0.79293600
C        4.51499300       0.38243200      -0.84407100
C        3.57987600      -0.56157300      -0.49372800
C        3.92719500      -1.95812500      -0.55460100
N        4.20478500      -3.08602200      -0.58489500
C        2.33997600      -0.11356100      -0.09655500
C       -0.14578800      -0.79522400       0.76230100
C       -1.46130800      -1.20134100       0.08850500
C       -1.96188500      -2.51024500       0.66159100
O       -2.10352700      -2.38886500       2.03153400
C       -0.88585200      -2.07046300       2.65973600
H       -3.27075500      -0.40807000       1.02706200
H       -1.30223100      -1.31858200      -1.01436300
22