27
Properties=species:S:1:pos:R:3 energy=4.08260930600368 pbc="T T T"
F        5.00056000       2.61289000       1.70397900
C        4.79769700       1.79167200       0.64454700
C        5.80081200       1.72907400      -0.30054000
C        5.62610200       0.89923900      -1.39678400
C        4.46122800       0.15222600      -1.52860100
C        3.45470200       0.20825300      -0.59047700
C        2.22878000      -0.59052000      -0.74810400
C        1.94569800      -1.44030900      -1.78229500
N        0.75126500      -1.96428000      -1.55452600
C        0.23866500      -1.48809300      -0.40542900
C       -1.07599500      -1.85881500       0.15419200
C       -1.89587500      -2.57770200      -0.86910200
O       -3.06048400      -3.10294700      -0.32661200
C       -3.11983100      -2.76952200       1.01735600
C       -3.04617500      -1.27399000       1.25099400
N       -1.83201600      -0.72205900       0.62831300
C       -2.29218300       0.12682800      -0.45129100
C       -3.14948800       1.18702500       0.16678700
C       -3.47014900       1.36526000       1.49893300
N       -4.26960500       2.44141700       1.63397000
C       -4.46153200       2.95042600       0.40233700
N       -3.78956700       2.19700000      -0.47325000
N        1.16795600      -0.64330900       0.07290300
C        3.64201700       1.03706600       0.49354000
H       -0.96670300      -2.54961200       1.03526600
H       -3.77118400       2.37270000      -1.48722200
H        1.08530300      -0.08991700       0.97293500
26
Properties=species:S:1:pos:R:3 energy=4.787491742782046 pbc="T T T"
C       -6.51933200      -1.53301400       0.30494200
C       -5.37965000      -2.30471400       0.38960300
C       -4.11597500      -1.72302200       0.30710700
C       -3.96605300      -0.36668700       0.13936100
C       -2.64009400       0.26157700       0.05064600
C       -2.35324400       1.59780200      -0.11589400
N       -1.00718800       1.71473500      -0.14200800
C       -0.43964500       0.52409200      -0.00079800
C        1.00423100       0.15786100       0.03160700
C        1.56910200       0.61250200       1.34635900
O        1.07593700       1.91244500       1.57779300
C        1.51866900       2.72528100       0.54093800
C        2.35894800       1.99812700      -0.46007500
N        1.65535400       0.87174400      -1.04513100
C        2.51522900       0.05003400      -1.83363300
C        3.64530200      -0.52659200      -1.05376900
C        3.68382600      -1.72409400      -0.36693500
N        4.88611300      -1.89626200       0.21541800
C        5.62259400      -0.79678300      -0.10329600
N        4.86156400       0.02046100      -0.86893700
N       -1.46410400      -0.37058600       0.11798000
C       -5.10960700       0.39845000       0.05554000
C       -6.36755400      -0.16535100       0.13579000
H        1.10942800      -0.94746300      -0.10857600
H        5.22545200       0.92534900      -1.22912300
H       -1.36930200      -1.41589200       0.24547400
24
Properties=species:S:1:pos:R:3 energy=4.050044303325521 pbc="T T T"
N        6.05112600      -1.34016800       1.99934100
C        5.25868500      -0.87210600       1.29669800
C        4.27509800      -0.28235200       0.40408000
C        4.50563900       0.91836600      -0.20978300
C        3.53953700       1.44488800      -1.05412900
C        2.34852700       0.79747600      -1.29804300
C        2.11247400      -0.40060800      -0.68876500
C        0.88343200      -1.19935400      -0.86016000
N        0.00941400      -0.48876000      -1.77056000
C       -1.23532900      -1.23283000      -1.98398200
C       -1.81413500      -1.20195800      -0.57153900
C       -1.15187500      -2.37498400       0.16261300
O       -1.43189600      -3.57125300      -0.44968300
C       -1.34619900       0.10081900       0.00554300
C       -2.45261800       1.02918400       0.30760600
C       -3.34588100       1.38658000      -0.67932200
C       -4.39924000       2.25378700      -0.44404300
C       -4.54215300       2.76069300       0.80961200
C       -3.64524700       2.40448500       1.80887900
N       -2.62319600       1.54547400       1.52541200
C       -0.47528200       0.68878100      -1.10199500
C        3.08608800      -0.92906000       0.16081500
H       -2.89712700      -1.33477700      -0.58910300
H       -0.70984200      -0.10232200       0.86907400
24
Properties=species:S:1:pos:R:3 energy=4.787491742782046 pbc="T T T"
C        4.86368300      -2.81212700      -0.86273900
O        3.62008700      -2.15443300      -0.88948100
C        3.48898700      -0.88507800      -0.29744000
C        4.58833900      -0.29764100       0.30560200
C        4.45108000       0.95192900       0.88609000
C        3.22242300       1.57039400       0.84414300
C        2.13335800       0.97994900       0.24252700
C        0.83602700       1.72086800       0.24190000
N        0.13669700       1.32135400       1.44989500
C       -1.12213100       2.04483100       1.46673100
C       -1.80461300       1.49849200       0.22918800
C       -1.56262400       2.46520500      -0.92472100
O       -2.07031100       3.71129600      -0.64524400
C       -1.15732100       0.16066800      -0.04013300
C       -2.12358300      -0.92435800      -0.19447800
C       -3.01478100      -1.23188500       0.80685100
C       -3.93435300      -2.27073800       0.64961500
C       -3.92918300      -2.97365400      -0.51887100
C       -3.03227800      -2.65333800      -1.50875900
N       -2.14387300      -1.63606900      -1.33436900
C       -0.32092000      -0.04002500       1.22722900
C        2.27521600      -0.25479600      -0.32930700
H       -2.89947500       1.41480500       0.37131300
H       -0.50045100       0.29435100      -0.93109600
25
Properties=species:S:1:pos:R:3 energy=4.036008985209137 pbc="T T T"
C        5.53853600       1.58613800      -0.17549900
C        4.10057800       1.89279900       0.23607500
C        3.57378500       3.07431300      -0.49382600
C        4.09049400       2.15499100       1.71217200
C        3.30880400       0.69764800      -0.09305000
C        3.50194700      -0.14866300      -1.19800200
O        2.60766300      -1.09308200      -1.12115200
C        1.83971200      -0.94806300      -0.07733600
C        0.69507400      -1.83925700       0.34191400
C        0.78173200      -3.18504600      -0.30407500
O        0.34788200      -3.20868900      -1.60150100
C       -0.90586800      -2.66930800      -1.81713400
C       -1.45023000      -1.79860600      -0.75262200
N       -0.52482600      -1.15088900       0.10977100
C       -1.21236500      -0.82494500       1.34456700
C       -2.33555700       0.09191800       1.12447700
C       -2.91386700       0.66204200       2.22910500
C       -3.95096100       1.53006000       2.17140500
C       -4.42317900       1.83882400       0.89697400
C       -3.87089200       1.28682700      -0.22456100
C       -4.35172300       1.61913400      -1.54744900
N       -4.75747100       1.91277200      -2.62680100
C       -2.81034800       0.39630300      -0.14230500
N        2.27181700       0.15465200       0.55818300
H        0.84926100      -2.03187200       1.45067000
26
Properties=species:S:1:pos:R:3 energy=4.728272383122075 pbc="T T T"
C       -4.35484600       2.85890000       1.29725100
C       -5.00605200       1.80288300       0.44743500
C       -6.40835400       1.45582400       0.79145600
C       -4.91361200       2.32984500      -1.00786300
C       -4.14949300       0.57399000       0.45403500
C       -4.36186900      -0.66023200       0.95293100
O       -3.36073100      -1.44314600       0.64507700
C       -2.48388300      -0.78473600      -0.04661700
C       -1.19254800      -1.21322100      -0.64723000
C       -0.85254800      -2.63857300      -0.51510300
O        0.40289900      -2.77712500      -1.17289900
C        0.52008100      -1.73846700      -2.12038700
C        0.76415700      -0.38424600      -1.48569600
N       -0.07315900      -0.37767400      -0.24035700
C        0.79075200      -1.17156300       0.70623200
C        2.14098100      -0.53561900       0.53502000
C        3.32431300      -1.23758100       0.68062200
C        4.59208800      -0.69532700       0.42068800
C        4.57834700       0.63918200      -0.01793100
C        5.86617300       1.25508100      -0.33179800
O        5.73682300       2.52385000      -0.69553900
O        7.04458400       0.70989000      -0.28059600
C        3.42959500       1.31095700      -0.14733300
C        2.24240500       0.74913300       0.12627400
N       -2.94625500       0.49850800      -0.18569700
H       -1.32984800      -1.05053400      -1.81206700
22
Properties=species:S:1:pos:R:3 energy=3.9512437185814275 pbc="T T T"
O        1.56440500       1.45667800       0.96713800
C        2.20098600       0.55329300       0.36577600
N        1.42448100      -0.45078200      -0.27506100
C        0.00355700      -0.40510900      -0.21887200
C       -0.69311700       0.58605400       0.44091400
N       -2.03715600       0.58611100       0.46591300
C       -2.73536400      -0.39776000      -0.16321200
C       -4.18684400      -0.31392300      -0.08153600
C       -4.97528600      -1.26750000      -0.68925600
C       -6.35910900      -1.22252200      -0.63420500
C       -7.00577000      -0.20987000       0.03871900
C       -6.23030500       0.74941000       0.65040200
C       -4.84969900       0.69099700       0.58664300
N       -2.09529200      -1.37266500      -0.81133700
C       -0.75160600      -1.37785400      -0.83967600
C        3.65102400       0.56101600       0.34390000
C        4.32867600       1.57088700       0.99043200
C        5.68365600       1.65023200       1.01707700
C        6.40964500       0.66208200       0.35867700
C        5.76162600      -0.35838400      -0.29532000
F        6.50378400      -1.29553100      -0.92073100
C        4.38770900      -0.39485900      -0.29363400
21
Properties=species:S:1:pos:R:3 energy=4.787491742782046 pbc="T T T"
O       -2.34506600       0.78553700       1.28449700
C       -2.63138200       0.33602900       0.14662600
N       -1.57243600      -0.07757900      -0.69270700
C       -0.20019400      -0.01813200      -0.33268400
C        0.27031000       0.44400000       0.86480100
N        1.61223200       0.45367800       1.09908400
C        2.49357600       0.02687600       0.19982000
C        3.93859000       0.03001700       0.43442400
C        4.44783500       0.48956900       1.63142900
C        5.80976900       0.49008300       1.84672100
C        6.66319000       0.03146900       0.86614100
C        6.18555900      -0.44085400      -0.35694400
C        4.80899600      -0.41578500      -0.51234400
N        2.02946200      -0.42532200      -0.97250700
C        0.71653800      -0.45932500      -1.26138900
C       -4.03927900       0.25229800      -0.27802900
C       -4.37970100      -0.23519500      -1.51706100
C       -5.67176900      -0.33502100      -1.96269200
C       -6.69183700       0.06888200      -1.14055200
C       -6.38044300       0.56096700       0.10509300
C       -5.06395100       0.65821000       0.54827500
18
Properties=species:S:1:pos:R:3 energy=3.933784497209659 pbc="T T T"
N        4.88420400       0.33218300       1.53487500
C        4.05883400       0.15579500       0.72439000
C        3.06589200      -0.07416600      -0.27229300
C        3.32210000      -0.97478900      -1.29399900
C        2.39971700      -1.23089500      -2.27644000
C        1.17710400      -0.56456600      -2.23873000
C        0.90452600       0.34337800      -1.21865400
C       -0.41768400       1.02274500      -1.23283400
N       -1.33694800       0.22211900      -0.48411800
C       -1.52821100      -1.09958100      -0.98688700
C       -2.84628400      -1.63120400      -0.46474000
O       -2.94604200      -1.46904900       0.90519200
C       -3.56811400      -0.28358000       1.25019300
C       -2.51727800       0.75395300       1.59823800
O       -2.95599400       1.99029600       1.09501700
C       -1.22838900       0.32987000       0.92831200
C        1.85977800       0.57535700      -0.24549300
H       -2.32721000       0.81773500       2.67797200
18
Properties=species:S:1:pos:R:3 energy=3.339321977944068 pbc="T T T"
C        3.87852600       1.90304500      -1.25934300
O        4.11866500       0.92201700      -0.27508700
C        3.19338300      -0.08103200       0.01473000
C        3.50369700      -1.00047400       0.98937900
C        2.62071700      -2.01176200       1.31211900
C        1.41133600      -2.06980800       0.62150800
C        1.07153200      -1.17069300      -0.35384500
C       -0.23530600      -1.30591300      -1.03828500
N       -1.22872900      -0.56799700      -0.34740900
C       -1.46162000      -0.94781300       1.00376500
C       -2.79149300      -0.38002400       1.44309000
O       -2.82592700       0.99038100       1.47054600
C       -2.16769500       1.61509100       0.44472400
C       -2.66015500       1.22874000      -0.92507900
O       -3.99541000       1.55154000      -1.13012100
C       -2.40194300      -0.25417800      -1.10076300
C        1.97525200      -0.17182500      -0.65328400
H       -2.00483000       1.75070600      -1.66538800
33
Properties=species:S:1:pos:R:3 energy=3.927896354584436 pbc="T T T"
O        4.29431500      -1.71728600       0.19824200
C        3.28592200      -1.00956000      -0.05923000
N        3.52666400       0.26187800      -0.63612300
C        4.85594300       0.76254800      -0.93207700
C        4.66570500       2.15459500      -1.53839700
C        6.00095400       2.77397500      -1.88730700
N        6.78352900       2.87780500      -0.66384700
C        6.85389600       3.87466600       0.22526700
C        7.73451700       3.49359900       1.20919500
N        8.18215600       2.25760800       0.88704100
C        7.60252000       1.87647800      -0.25917100
C        1.93446800      -1.49381600       0.23067300
C        0.83494700      -0.71289500      -0.05411300
C       -0.45312500      -1.13756200       0.20585800
C       -0.70006300      -2.37317000       0.76717200
C       -2.05878000      -2.83928700       1.04945800
N       -2.41153400      -4.01527700       1.59031800
C       -3.74393400      -4.10853200       1.70589700
C       -4.25629100      -2.93053200       1.21235600
C       -5.50511600      -2.37942400       1.03768500
N       -5.67460600      -1.16319000       0.50807900
C       -4.61797100      -0.40806400       0.11452100
C       -4.80419700       0.91305600      -0.46063900
C       -6.05484200       1.43700600      -0.62309500
C       -6.25857600       2.70180200      -1.17234100
C       -5.15727200       3.42673700      -1.55511500
C       -3.88455900       2.93379500      -1.40763500
F       -2.80716300       3.65678700      -1.78822400
C       -3.71903100       1.65626700      -0.85061300
C       -3.35860800      -0.95585800       0.28713800
N       -3.19748600      -2.17492000       0.81846400
C        0.40533700      -3.14854300       1.04917100
C        1.70227900      -2.72993500       0.79139200
32
Properties=species:S:1:pos:R:3 energy=3.927896354584436 pbc="T T T"
O        3.20612300       0.99955000       0.48314200
C        3.04120000      -0.19945900       0.21848500
N        4.18963200      -1.02774800       0.10437300
C        5.52540400      -0.50523500       0.28850500
C        5.69596000       0.07877400       1.67452600
C        7.08604600       0.62788000       1.88021900
N        7.29084600       1.66379200       0.89131200
C        7.79680800       1.48347100      -0.33735500
C        7.82782000       2.71212800      -0.96225500
N        7.33184900       3.62709000      -0.08510900
C        7.00889100       2.96683000       1.04289200
C        1.72272000      -0.80181100       0.01826700
C        1.58564300      -2.13998000      -0.27456200
C        0.35934300      -2.74069100      -0.46941000
C       -0.78385600      -2.01063900      -0.37594500
C       -2.11889800      -2.57772000      -0.56952000
N       -2.33014000      -3.87305900      -0.85721000
C       -3.66784400      -4.01241200      -0.95971400
C       -4.28738500      -2.80102600      -0.73513200
C       -5.59861600      -2.37611500      -0.71588500
N       -5.90069800      -1.09071300      -0.45825200
C       -4.93671800      -0.18528000      -0.21274100
C       -5.24382500       1.21178900       0.06841600
C       -6.52401300       1.71675400       0.10645200
C       -6.78645200       3.04387200       0.37510100
C       -5.76147100       3.92970100       0.61967900
C       -4.47459000       3.44266800       0.58582900
C       -4.22653900       2.10838200       0.31487300
C       -3.63697600      -0.63723100      -0.23837500
N       -3.28627200      -1.91289900      -0.49128800
C       -0.66429800      -0.65447100      -0.08023100
C        0.56030200      -0.06619200       0.11187200
31
Properties=species:S:1:pos:R:3 energy=3.728100167267218 pbc="T T T"
N        8.07242100       0.84299500       1.75252700
C        7.16822900       0.31913300       1.27165800
C        6.04885000      -0.32077600       0.65889700
C        6.09742000      -1.67455800       0.34859400
C        5.04904400      -2.34106300      -0.24169200
C        3.90943600      -1.61513200      -0.52965400
C        3.80231900      -0.27198900      -0.24583200
C        2.57464400       0.47752500      -0.56399400
N        1.57502700      -0.37129400      -1.17937600
C        1.18612100      -1.46877500      -0.32488500
C       -0.15930500      -1.14514600       0.23861600
C       -1.22023900      -2.13361900      -0.14770100
O       -2.47676500      -1.84268100       0.37101900
C       -3.52841400      -2.69520000       0.07311600
C       -3.37625200      -3.82388200      -0.72002800
C       -4.49261800      -4.60026600      -0.95037000
C       -5.73633100      -4.29925800      -0.42823300
C       -5.86089600      -3.17879400       0.35229700
C       -4.75666100      -2.39724100       0.58922500
C       -0.43360200       0.24875800      -0.22622500
C        0.37669900       0.38956200      -1.46756800
C       -0.34173100       1.33486000       0.78950500
N       -1.50876800       1.95281100       0.18985500
C       -1.98636100       3.28440500       0.18226300
C       -3.15902800       3.58124400      -0.49190300
C       -3.64904200       4.88434700      -0.51359700
C       -2.99423200       5.91080200       0.12576600
C       -1.82703200       5.62029500       0.79787800
C       -1.35021100       4.32208900       0.81233000
C       -1.87590100       0.65149300      -0.32850000
C        4.87317800       0.35935300       0.34505100
32
Properties=species:S:1:pos:R:3 energy=4.787491742782046 pbc="T T T"
O       -8.22825000      -1.80259400       1.23472000
C       -7.63012700      -0.89943500       0.61638600
O       -8.24031000       0.34014100       0.49109000
C       -6.31472600      -1.10427100       0.02318000
C       -5.68177400      -0.08343900      -0.65395900
C       -4.43896900      -0.23085100      -1.23055500
C       -3.76084600      -1.43746600      -1.15109000
C       -2.42649000      -1.63597900      -1.75607900
N       -1.35509300      -1.31028400      -0.84073100
C       -1.41249300       0.07064200      -0.40373300
C       -0.04790800       0.26381700       0.22444800
C        0.45646200       1.64767000      -0.11981400
O        1.71422500       1.91407900       0.42038100
C        2.28345300       3.17444000       0.16425500
C        1.63226900       4.12033100      -0.59143200
C        2.16604500       5.33983800      -0.84814300
C        3.41106300       5.68518000      -0.34928800
C        4.05259500       4.72696500       0.40676700
C        3.52106700       3.48656500       0.67382800
C        0.83472100      -0.73207500      -0.45722300
C       -0.05920300      -1.35198300      -1.49048100
C        1.56897100      -1.69663400       0.44124900
N        2.80450000      -1.25117400      -0.17728700
C        4.16147000      -1.65050600      -0.06562000
C        5.16031800      -1.03861400      -0.78958800
C        6.48538300      -1.39764800      -0.70805300
C        6.82863300      -2.42019200       0.14032700
C        5.86695600      -3.06052600       0.88293200
C        4.54782000      -2.67681700       0.77837100
C        2.15118900      -0.22945900      -0.96943900
C       -4.40339400      -2.45219700      -0.47123400
C       -5.64756000      -2.30752300       0.10700800
25
Properties=species:S:1:pos:R:3 energy=3.648057459593681 pbc="T T T"
N        7.55429000      -1.57817200      -2.22891300
C        6.55330300      -1.11343300      -1.87953600
C        5.30759300      -0.50773500      -1.43568200
C        4.08192700      -0.99096800      -1.84425500
C        2.91199800      -0.37963500      -1.39412100
C        2.94920400       0.70550600      -0.54325300
C        1.71814500       1.37997400      -0.04517000
N        1.33122700       0.72525100       1.18867900
C        1.07708700      -0.66202900       0.91686200
C       -0.37905400      -0.91793600       1.13036000
C       -0.96930500       0.44242300       1.29916100
C       -2.00873400       0.37245900       2.39413400
O       -2.92439200      -0.70656500       2.15384800
C       -3.91441600      -0.72284100       1.15193600
C       -5.02012000      -1.44887000       1.47764000
C       -6.07154700      -1.53737500       0.55894000
C       -6.00301400      -0.90385900      -0.66238600
C       -4.88539700      -0.16873900      -0.99419500
C       -3.84928500      -0.08774900      -0.07616300
C       -2.73547300       0.73452700      -0.58982700
O       -2.89999000       1.25292200      -1.73855800
N       -1.50387000       0.99852700       0.07710700
C        0.16794900       1.29093100       1.79721400
C        4.17019000       1.18796600      -0.13540100
C        5.34168300       0.58566300      -0.57842200
25
Properties=species:S:1:pos:R:3 energy=3.5467396869528134 pbc="T T T"
C        6.81259800       0.46189200      -1.76023900
O        6.10864900       1.40391400      -0.96868100
C        4.93619100       0.99944200      -0.33276500
C        4.44330300      -0.28538200      -0.45095800
C        3.27830600      -0.65242900       0.19296100
C        2.55756300       0.22454000       0.97313900
C        1.29683800      -0.17934600       1.66765900
N        1.05900500      -1.57348900       1.34270100
C       -0.16213200      -2.02750900       1.99367600
C       -1.21874600      -1.27891900       1.22983200
C       -0.66212000      -1.09212700      -0.18297700
C       -1.53364400      -1.88192100      -1.11374900
O       -2.86737000      -1.82491800      -0.63462800
C       -3.67126500      -0.69568300      -0.57030300
C       -5.02401000      -0.95526700      -0.56485300
C       -5.95904200       0.05357800      -0.50453200
C       -5.54683900       1.36218700      -0.44767500
C       -4.20825800       1.66830100      -0.45072300
C       -3.29554100       0.65125800      -0.51114200
C       -1.89647400       1.11623700      -0.50742200
O       -1.76778400       2.37313100      -0.55561500
N       -0.70002400       0.33320700      -0.45703800
C        0.74413400      -1.60052800      -0.09412500
C        3.05658700       1.51606800       1.08958900
C        4.22007400       1.88376400       0.44689500
24
Properties=species:S:1:pos:R:3 energy=3.6027767550605247 pbc="T T T"
N       -7.16839500       1.07354600      -1.16491800
C       -6.28084900       0.57646200      -0.63059700
C       -5.16456700      -0.04960600       0.01941600
C       -5.30982100      -1.01001200       0.99855700
C       -4.17374100      -1.54506900       1.55585800
C       -2.91247700      -1.15915600       1.17409100
C       -2.78437600      -0.20253200       0.19865200
C       -1.42648100       0.22065100      -0.22019900
C       -1.12932900       1.16326500      -1.17980400
N        0.20451200       1.25044400      -1.25580300
C        0.76631400       0.39035100      -0.37208600
N       -0.25441200      -0.22567400       0.24697700
N        2.17606100       0.26865000      -0.23413100
C        2.68149400      -0.49055500       0.84466600
O        1.90578700      -1.05245400       1.67332600
C        4.12263200      -0.61414600       0.98456000
C        5.10506900      -0.07482800       0.18298500
C        6.33563800      -0.45139400       0.69227900
C        6.02247700      -1.22276500       1.81003500
O        4.71906700      -1.27567200       1.92040500
C        3.08065400       0.89687000      -1.16162000
C        2.27451900       1.15297500      -2.44114300
C        1.11286800       2.04560600      -2.05880300
C       -3.90264500       0.33504200      -0.36105000
24
Properties=species:S:1:pos:R:3 energy=4.087655574071304 pbc="T T T"
C        6.29160700      -0.20269500       1.39662500
O        6.35594400       0.32551400       0.07614000
C        5.15922000       0.53945200      -0.59428200
C        5.18970400       1.05115500      -1.87703100
C        4.00716400       1.26805200      -2.55332000
C        2.78434600       0.97235200      -1.94569800
C        2.74033200       0.46439000      -0.67384400
C        1.49252200       0.13833400       0.00727900
C        1.34357800      -0.37027100       1.26931500
N        0.05792700      -0.54141500       1.55686400
C       -0.62655900      -0.14039100       0.47276900
N        0.23562200       0.27433200      -0.47409800
N       -2.04708500      -0.19650800       0.45616400
C       -2.73746300      -0.10147300      -0.76967600
O       -2.12435800       0.03325000      -1.86311900
C       -4.19645200      -0.15492100      -0.82799400
C       -5.01688200      -0.07861700      -1.91979100
C       -6.31191800      -0.17744800      -1.45994000
C       -6.22212900      -0.31113200      -0.09256400
O       -4.96687100      -0.29061000       0.21118900
C       -2.74640700      -0.35090000       1.71015100
C       -2.01900500      -1.35736000       2.57283300
C       -0.57179000      -1.04753400       2.75936500
C        3.92895200       0.25444500      -0.01436000
31
Properties=species:S:1:pos:R:3 energy=3.502549875922443 pbc="T T T"
C        9.79673300      -1.00500100       0.41906700
N        8.33778500      -1.05911200       0.45849700
C        7.63631800      -2.12702200       0.84094300
C        6.30685500      -1.85199700       0.76372300
C        6.21227600      -0.55349900       0.31204800
N        4.99284400       0.13406600       0.08935400
C        3.72247700      -0.43117400       0.30442800
O        3.67354100      -1.61708100       0.71881600
C        2.47337400       0.29090200       0.07012900
C        2.44900100       1.59282200      -0.38404600
C        1.25744000       2.26401900      -0.60136800
C        0.04378900       1.65335500      -0.37085700
C       -1.22298800       2.36784700      -0.60222500
N       -1.38334300       3.62900500      -1.04027500
C       -2.69191200       3.92899300      -1.12630800
C       -3.36843800       2.79313700      -0.72004300
C       -4.69805600       2.45536300      -0.58309100
N       -5.03516300       1.22825700      -0.14981400
C       -4.12851700       0.28779400       0.16559300
C       -4.56759000      -1.02353900       0.62973800
C       -3.67809000      -2.01766100       0.96411800
C       -4.14500600      -3.25154700       1.40162600
C       -5.49811700      -3.50401900       1.50914200
C       -6.40222700      -2.50676500       1.17387700
F       -7.72555800      -2.77751900       1.28735600
C       -5.91324500      -1.29574000       0.74403600
C       -2.79728800       0.62024000       0.03047800
N       -2.44656000       1.86440900      -0.40895100
C        0.06977000       0.35342500       0.08260100
C        1.25942300      -0.32000900       0.30073100
N        7.47047400      -0.12194800       0.14376700
30
Properties=species:S:1:pos:R:3 energy=3.4719664525503626 pbc="T T T"
C        7.99125000      -2.28163700       3.18145700
N        7.37397500      -1.49324900       2.12286800
C        8.07645200      -0.81959700       1.21556600
C        7.15271300      -0.19768700       0.38146900
C        5.89302700      -0.52983600       0.83086200
N        4.70517400      -0.07335900       0.21974200
C        3.40584100      -0.41695800       0.68461200
O        3.31034500      -1.15508100       1.67729000
C        2.22222900       0.10016200      -0.00809100
C        2.35466000       0.91824100      -1.10851400
C        1.23956700       1.41172900      -1.76966000
C       -0.04130400       1.11115800      -1.36260800
C       -1.22258600       1.62634400      -2.05285900
N       -1.27373500       2.42836000      -3.13138100
C       -2.54588700       2.68941700      -3.47966400
C       -3.33753600       2.01619700      -2.57249900
C       -4.69066500       1.86787300      -2.37000500
N       -5.15389400       1.10971600      -1.34932000
C       -4.33158600       0.47482100      -0.49726600
C       -4.87445800      -0.33839900       0.59766300
C       -6.23808500      -0.45917000       0.76319000
C       -6.80342500      -1.21007900       1.77433200
C       -5.94398800      -1.85344500       2.63760500
C       -4.57395500      -1.75984800       2.50860800
C       -4.06307000      -0.99594400       1.48011000
C       -2.97578800       0.61934700      -0.69465600
N       -2.50538700       1.38436100      -1.72458300
C       -0.16323600       0.29251100      -0.26143800
C        0.94432100      -0.20448100       0.40443400
N        6.06903200      -1.32735300       1.90273700
23
Properties=species:S:1:pos:R:3 energy=3.2733640101522705 pbc="T T T"
F       -6.02728100       1.19681300       2.61224400
C       -5.70149500       0.48776700       1.51720000
C       -6.63227100      -0.12871500       0.72043700
C       -6.26164000      -0.84773600      -0.39516100
C       -4.93449000      -0.96501400      -0.73918900
C       -3.99792100      -0.34748300       0.05839200
C       -2.56859800      -0.43465800      -0.25397400
N       -2.05753300      -1.09107800      -1.29447300
O       -0.77985400      -0.94819500      -1.24569800