29
Properties=species:S:1:pos:R:3 energy=0.2695231513476157 pbc="T T T"
O       -4.50517600       1.77705200       2.19144600
C       -4.17770900       1.13141600       1.15129800
C       -2.91958100       1.24275800       0.57557300
C       -2.59177400       0.50960900      -0.57418500
C       -1.27452200       0.67106200      -1.15331600
N       -0.69792200      -0.38606600      -1.88597900
C        0.60046400       0.12744700      -2.38823200
C        0.85529300       1.48776400      -1.71292700
C        0.68801800       1.26094800      -0.18807600
N        1.14555200      -0.15627800       0.02050000
C        2.56099500      -0.26085600       0.18127200
C        3.17410500       0.46366900       1.20998400
C        4.54067400       0.48793800       1.32114700
C        5.34670500      -0.19062800       0.44005900
C        6.83700400      -0.11166900       0.51303100
F        7.31657500       0.48065000      -0.67487200
F        7.19627100       0.77596700       1.52124100
F        7.45719400      -1.29547800       0.70031000
C        4.71540700      -0.90308100      -0.56208600
N        3.35707600      -0.91341900      -0.65273400
C        0.39022100      -1.34594800       0.06114200
C       -0.44092100      -1.56900100      -1.14702400
N       -3.53555800      -0.28302400      -1.07164500
C       -4.75324500      -0.37085100      -0.48901600
C       -5.67295900      -1.19633400      -1.05509700
C       -6.93930400      -1.33915700      -0.52848600
C       -7.27075900      -0.62573900       0.59871100
C       -6.31616100       0.20766700       1.15630200
N       -5.08596200       0.32358100       0.61317600
23
Properties=species:S:1:pos:R:3 energy=0.2702142363510712 pbc="T T T"
C       -6.96015600      -0.31301200       0.02947100
C       -5.46638200      -0.24250700      -0.00262900
C       -4.75281600       0.37462200       1.00386300
C       -3.37535800       0.42620000       0.95072900
C       -2.64417400      -0.11746600      -0.07757700
C       -1.18940100      -0.04679300      -0.10537800
N       -0.34395400      -0.52604500      -1.03285700
N        0.91118400      -0.25241600      -0.68446300
C        2.10299700      -0.50754300      -1.25554000
O        2.10835300      -1.13074300      -2.34755500
C        3.29453200      -0.11112600      -0.68549900
C        3.21544900       0.56546000       0.50766400
N        2.00335800       0.82124400       1.08203100
C        0.87756700       0.42028900       0.49720600
C       -0.43601200       0.55876800       0.87666000
C       -0.88945700       1.23975900       2.11663400
C        4.37832500       1.07360100       1.27529100
C        5.59479900       0.28612900       0.85639500
C        5.68465600       0.44278100      -0.66593900
C        4.60581700      -0.39274000      -1.31468300
C       -3.36261800      -0.73903000      -1.09132600
C       -4.74050800      -0.79116300      -1.03911900
H       -0.61620000      -1.03826900      -1.90158800
27
Properties=species:S:1:pos:R:3 energy=0.2719419488597097 pbc="T T T"
C       -2.13426600      -3.98908100      -1.78942900
O       -1.23530800      -2.99369200      -1.34376300
C       -1.73711100      -1.79430000      -0.84695000
C       -3.09919700      -1.58411600      -0.79219400
C       -3.67825300      -0.42479900      -0.31436500
C       -2.81954400       0.56998600       0.13002100
C       -1.43410600       0.38225500       0.08539800
C       -0.89168700      -0.78855000      -0.39824000
N        0.50693900      -1.03807800      -0.46882600
C        1.46692200      -0.07643000      -0.03590600
O        1.00434000       1.00476200       0.41177900
C        2.91624700      -0.29748000      -0.09312800
O        3.59273200       0.83132700       0.40358800
C        4.98298600       0.89937000       0.46768300
C        5.76460300      -0.15833400       0.03807500
C        7.14033100      -0.08009800       0.10613400
C        7.75708100       1.02939400       0.59313700
Cl       9.52211500       1.03923300       0.64199200
C        7.01354200       2.09318200       1.02629200
C        5.64233400       2.00176800       0.95274800
O       -3.58248500       1.55148200       0.52763900
C       -4.85758000       1.28571200       0.38239500
C       -6.02882600       1.98206300       0.64851200
C       -7.26707500       1.44509000       0.38898400
C       -7.37718300       0.18311200      -0.14992900
C       -6.19918400      -0.51164600      -0.41519800
C       -4.96836500       0.02393600      -0.15644900
25
Properties=species:S:1:pos:R:3 energy=0.274015203870076 pbc="T T T"
C        7.60618000       1.31665900       1.81799400
O        8.08418100       0.06585400       1.39740100
C        7.13553800      -0.89482900       1.49233200
C        5.94912700      -0.69073500       0.52361200
C        5.42281800       0.70978200       0.87634000
O        4.24880800       0.96606600       0.10482500
C        3.10994400       0.20638500       0.32620500
C        3.07231200      -0.76389400       1.27502600
C        1.96128800      -1.48845400       1.53803800
N        0.82578500      -1.21875300       0.80652800
C        0.87268000      -0.27445000      -0.12282600
C       -0.40658200      -0.18159900      -0.97668200
S       -1.51291800       0.85845000       0.01931300
O       -1.53598200       0.05671200       1.57328600
C       -3.18452100       0.49540300      -0.55685400
N       -4.25182600       0.97634100       0.04602900
C       -5.35896800       0.41538200      -0.45744500
C       -6.71703300       0.54930400      -0.20039100
C       -7.68700400      -0.17723600      -0.86049300
C       -7.20767100      -1.07891200      -1.81748200
C       -5.87045700      -1.18897700      -2.05929700
C       -4.92278300      -0.45854000      -1.40736000
N       -3.53723700      -0.39504900      -1.44680300
C        1.98203000       0.50854800      -0.45106200
C        1.92229100       1.58551900      -1.44023400
56
Properties=species:S:1:pos:R:3 energy=0.27643400138217 pbc="T T T"
C      -11.84299900      -1.21650300       0.59337000
C      -11.37520200      -1.88650200      -0.65263300
O      -12.10200900      -1.81426900      -1.66751600
N      -10.15090000      -2.57961700      -0.68401100
C       -9.71575800      -3.21878700      -1.89503800
C       -8.46197500      -2.47049000      -2.36692000
N       -7.62738800      -2.21999700      -1.21071000
C       -6.49760300      -1.36066400      -1.38866000
C       -5.62770200      -1.09297400      -0.34084600
C       -4.52840600      -0.27068200      -0.45983400
C       -4.26941900       0.32154000      -1.67609100
O       -3.19050500       1.16149100      -1.88965800
C       -2.25933000       1.47803600      -0.86172900
C       -1.25046500       2.40804500      -1.46855700
N       -1.19491100       2.88062600      -2.72060500
N       -0.15277600       3.68040900      -2.86655600
C        0.24569100       4.38905600      -4.09066200
C        0.52360800       3.76670800      -1.70692100
C        1.74383300       4.62191400      -1.49686000
C       -0.14978600       2.97060000      -0.80921400
C        0.15373600       2.79678700       0.59595100
C       -0.27460000       3.83069700       1.43875600
C        0.01633700       3.72305200       2.76689500
C        0.70029500       2.65227300       3.28220100
C        1.10913600       1.64971500       2.43791800
C        1.75606100       0.45864700       2.69238900
C        2.22659400      -0.02639200       4.02917000
C        3.41881700       0.74057600       4.51735800
C        4.63199300       0.70925300       3.68454800
O        5.22101000      -0.53047400       3.45970600
C        6.37029900      -0.70972100       2.69363000
C        6.98883700       0.38159700       2.10758500
C        8.13034600       0.21658800       1.34483100
C        8.76613900       1.40189300       0.73313900
C        8.69808400      -1.02084400       1.13451400
Cl      10.14107700      -1.24899200       0.17311300
C        8.07061300      -2.09637100       1.72442800
C        8.68832500      -3.44809100       1.49622200
C        6.93251000      -1.94916400       2.48742900
C        1.85715100      -0.16830400       1.47934100
C        2.42866700      -1.48499500       1.27268600
O        2.52406900      -2.05192500       0.17567400
O        2.92113800      -2.20466600       2.38074700
N        1.30628000       0.58261900       0.48424800
C        1.19946000       0.21073800      -0.90993200
C        2.43929300       0.44776400      -1.67120600
C        3.08006000       1.64520500      -1.60010300
C        4.21615800       1.98209000      -2.27688100
C        4.74831000       0.99466700      -3.10865500
N        4.12111400      -0.19172100      -3.18464300
C        3.00810100      -0.50521500      -2.51416900
C        0.83463100       1.71650400       1.06354600
C       -5.11863400       0.07090100      -2.73126800
C       -6.22458200      -0.76053800      -2.59894200
C       -7.87098500      -2.78243600       0.10372000
C       -9.33184100      -2.64962400       0.49570500
32
Properties=species:S:1:pos:R:3 energy=0.27643400138217 pbc="T T T"
C       -6.80337600       0.34189100      -1.50929600
C       -5.76722700       0.57206600      -0.40839300
C       -6.41122300       1.30720900       0.79210300
C       -5.23069400      -0.73818900       0.11810000
C       -5.97441800      -1.86420400      -0.03126800
C       -5.53127300      -3.08475500       0.44877700
C       -4.31622800      -3.12377300       1.07803600
C       -3.56748100      -1.95127700       1.21624200
C       -4.02675100      -0.75678200       0.73473800
C       -3.21949800       0.46821400       0.72048700
N       -3.66710500       1.64782400       1.13570600
C       -2.96727000       2.77150300       1.02666600
C       -1.70036100       2.75982400       0.44947900
F       -0.91919700       3.86014900       0.28520700
C       -1.20310200       1.55399100       0.00094200
N        0.07385500       1.40432800      -0.60743200
C        0.45068200       0.05200100      -1.09233400
C        1.91033700      -0.17383800      -0.93673600
C        2.36284700       0.11259500       0.37958900
C        3.68313800       0.01626500       0.69127900
C        4.56226500      -0.36068400      -0.29441400
C        6.01557300      -0.39297700       0.00554700
C        6.98209600      -0.14901100      -0.90417500
C        8.29490400      -0.13204700      -0.54825600
C        8.69648500      -0.35713400       0.75290900
N        7.70559100      -0.59301900       1.64398000
C        6.39950700      -0.62260800       1.32156700
C        4.15038400      -0.64815500      -1.57178000
C        2.77558000      -0.54593700      -1.88661500
C       -0.38098100      -1.13842100      -0.56766200
C       -0.37926100      -0.70088700      -2.00323700
N       -1.99779600       0.46584000       0.16974600
15
Properties=species:S:1:pos:R:3 energy=0.27643400138217 pbc="T T T"
O       -2.42743500       2.12154000      -1.02328200
C       -2.31139500       0.91324600      -0.36795600
C       -3.47005500       0.26806100       0.05187200
C       -3.36231000      -0.94109300       0.70814800
C       -2.10381300      -1.46497500       0.92308900
C       -0.94893900      -0.82079300       0.50402800
N        0.27585800      -1.32729000       0.71137200
C        1.39952900      -0.69599700       0.30116000
C        2.66105400      -1.22935800       0.52111400
C        3.80236400      -0.56095300       0.08955200
C        3.71490700       0.64790500      -0.56772500
C        2.45403100       1.16538900      -0.77901600
C        1.29931600       0.51395300      -0.35598300
N        0.06951100       1.02290500      -0.56438700
C       -1.05262400       0.38746000      -0.15198700
23
Properties=species:S:1:pos:R:3 energy=0.2767795438838977 pbc="T T T"
O       -2.31993000       1.78267800      -1.70845200
C       -2.38705800       0.83482300      -0.83057900
C       -1.11888500       0.29063500      -0.34705700
N        0.10830200       0.73647100      -0.77870600
C        1.08529000       0.06327600      -0.17128000
C        2.53824900       0.27130000      -0.38647100
C        3.04887800       0.40465600      -1.65686000
C        4.39671700       0.59639600      -1.83157300
C        5.19142600       0.64767300      -0.70928800
Cl       6.92505300       0.89514900      -0.95062800
N        4.69630700       0.51782800       0.53322200
C        3.37582700       0.33079500       0.68818500
C        0.49714700      -0.83751100       0.67120500
C        0.99696500      -1.77789500       1.53327600
C        0.19389700      -2.58979500       2.29690800
C       -1.17048900      -2.39762200       2.14051800
C       -1.62229900      -1.45159300       1.27247200
N       -0.83576400      -0.67084500       0.53791900
N       -3.67192300       0.45797700      -0.46183000
C       -4.10148800      -0.54242400       0.47034800
C       -5.23476500       0.15122900       1.22218700
C       -5.69394600       1.25172500       0.28275300
C       -4.89751000       1.03507400      -0.97647600
19
Properties=species:S:1:pos:R:3 energy=0.2785072563925363 pbc="T T T"
C       -1.07075500      -3.55481600      -0.01074000
C       -1.76135100      -2.22436900       0.06090000
C       -3.12927600      -2.10765700       0.14817100
C       -3.74521100      -0.87563300       0.21305100
C       -2.96981300       0.26327400       0.18971800
C       -1.60880900       0.19915100       0.10401300
C       -0.86668200       1.35626200       0.08312800
C       -1.50261700       2.66567900       0.15092900
O       -2.75410000       2.77064700       0.23072500
O       -0.78545200       3.84826400       0.13216700
C        0.50303100       1.22527600      -0.00457400
C        1.05918400      -0.03303800      -0.06631900
C        2.52872400      -0.24769000      -0.16205100
C        3.30220600      -1.23468200      -0.23135200
C        4.65711700      -1.05337400      -0.31141400
C        5.18469500       0.03414300      -0.32058400
S        3.67421500       1.17039900      -0.20236600
N        0.30898600      -1.14292300      -0.04390700
C       -1.02409000      -1.05891300       0.04050500
27
Properties=species:S:1:pos:R:3 energy=0.2791983413959917 pbc="T T T"
C        8.30828100      -0.04736600      -0.87448800
O        7.09814500       0.03063900      -1.56342900
C        5.88917500      -0.07135200      -0.87021500
C        5.90196800      -0.24672600       0.48414100
C        4.68357300      -0.34625700       1.15708400
C        3.52499400      -0.26391100       0.43443600
C        3.50168200      -0.08700500      -0.93046700
N        2.30060100       0.00160300      -1.67873500
C        1.04952600      -0.09898300      -1.00371600
N        1.04614600      -0.29496000       0.34502100
C       -0.11156500      -0.40122000       1.01809300
C       -1.33590200      -0.31740200       0.38313500
C       -2.55230400      -0.43815100       1.17488200
C       -2.73336900      -1.42900700       2.11581700
C       -3.92097600      -1.47079300       2.82935800
C       -4.92033400      -0.54343000       2.61635000
C       -4.75420100       0.44683100       1.68481800
N       -5.70480900       1.44090100       1.38736300
C       -6.65025300       1.21676500       0.33121500
C       -5.73297900       2.66720000       2.13233400
C       -3.55409100       0.47345000       0.97679300
C       -1.30841600      -0.11896100      -0.98044500
C       -0.13741500      -0.00647100      -1.69750700
O       -0.42625200       0.18768800      -3.04780000
C       -1.75728700      -0.30603000      -3.26232700
C       -2.41379600       0.01253500      -1.93654600
C        4.70985900       0.01041300      -1.58985800
26
Properties=species:S:1:pos:R:3 energy=0.2791983413959917 pbc="T T T"
C       -3.58825200       3.09735400      -0.77864200
C       -4.48508500       2.03685200      -0.12760800
O       -3.72231600       0.87320300      -0.05335000
C       -4.13626100      -0.33595200       0.47837800
C       -5.37355500      -0.56586500       1.01842500
C       -5.74721900      -1.78361600       1.54111600
C       -4.81162200      -2.80098800       1.50528600
C       -3.55340000      -2.61522500       0.97108900
C       -3.21403400      -1.37028900       0.45238800
C       -1.88420300      -1.17181500      -0.12079900
O       -1.02692600      -2.07063400      -0.16177900
N       -1.56192600       0.07569500      -0.64359200
C       -0.38894100       0.56165900      -1.24856800
C       -0.03166700       1.87181900      -0.52177200
C        0.84281400       1.31470300       0.61038500
N        1.73458900       0.47159600      -0.20638100
C        3.13466500       0.46392600      -0.09162400
C        3.78389100      -0.50930800       0.58678600
C        5.17193500      -0.49573900       0.69840700
C        5.82172400      -1.58903100       1.45807200
C        5.91791100       0.51742700       0.11538100
C        5.28102400       1.51668100      -0.57833800
C        6.02433200       2.62654300      -1.21794000
C        3.91614400       1.47115400      -0.66788900
C        0.83762400      -0.23452800      -1.05595100
O        1.05875200      -1.35562300      -1.56139500
34
Properties=species:S:1:pos:R:3 energy=0.2791983413959917 pbc="T T T"
C       10.65581500       1.22073500      -0.29985000
C        9.35717800       1.78423600      -0.81839600
N        8.34885900       1.56505500       0.21110500
C        7.06757000       2.07224700      -0.19409800
C        6.41794500       1.20627700      -1.27065100
N        6.33817700      -0.13136700      -0.74323700
C        5.78600600      -0.11188000       0.61063700
C        5.68903200      -1.47823000       1.18747400
C        4.80961400      -2.45347500       0.53160000
N        3.44495400      -2.18249000       0.52173100
C        2.72325800      -1.13366500      -0.01096600
O        3.33259800      -0.20911000      -0.61818500
C        1.28273100      -0.99873700       0.06943100
C        0.64551700       0.06714700      -0.48272300
C       -0.69640200       0.24774100      -0.43991200
C       -1.55607600      -0.70589400       0.21209600
C       -0.88774700      -1.73222500       0.73771000
C        0.47749200      -1.94509100       0.71117200
S       -2.25810900      -2.70228300       1.45573400
C       -3.58199600      -1.53331800       0.91924800
N       -4.87652000      -1.31993100       0.93765500
C       -5.08612300      -0.15561300       0.28075200
C       -6.35801200       0.50845700       0.03341300
C       -6.41893100       1.70107300      -0.65642500
C       -7.61643800       2.34539400      -0.90044900
C       -8.80602400       1.81252700      -0.45779300
O      -10.01602200       2.47201800      -0.70929700
C      -11.25202300       1.98296400      -0.28709900
C       -8.76159600       0.62259700       0.23229800
C       -7.54992600      -0.02162500       0.47470000
C       -3.85370600       0.28711400      -0.11401900
N       -2.86422000      -0.62003500       0.30649800
C        7.71975000      -0.61928900      -0.63699500
C        8.34337500       0.15867700       0.52538300
26
Properties=species:S:1:pos:R:3 energy=0.2795438838977194 pbc="T T T"
O        3.14662000      -0.61159400       1.70286400
C        2.08361800      -1.06033600       1.16415200
C        2.04938900      -2.38372700       0.76239500
C        3.13564600      -3.22781900       0.93034400
C        3.03406500      -4.53635300       0.50718300
C        1.85226900      -4.97383800      -0.07370200
C        0.77600700      -4.16262400      -0.24748300
C        0.88163400      -2.83432100       0.18303500
N       -0.14784900      -1.97878400       0.04019400
C       -0.12173700      -0.70106300       0.42543500
C       -1.25014300       0.21842900       0.26352000
C       -2.38570200      -0.12076300      -0.27084100
C       -3.53076000       0.75511500      -0.45193800
C       -3.54738700       2.07668200      -0.07009900
C       -4.70159700       2.79237100      -0.30177500
C       -5.80604000       2.22719700      -0.89064600
N       -5.76364000       0.93955600      -1.25265300
C       -4.66081100       0.23455400      -1.03750800
N        1.00970800      -0.24730400       0.99182200
C        1.16583200       1.12302700       1.45400600
C        1.70233200       1.95758900       0.34698200
C        0.79429100       2.56169300      -0.48215400
C        1.21685600       3.34692600      -1.52550500
C        2.56617500       3.54421600      -1.76097700
C        3.45306700       2.92662700      -0.91422000
C        3.04815700       2.13454600       0.13868500
25
Properties=species:S:1:pos:R:3 energy=0.2798894263994471 pbc="T T T"
O        3.16351200      -1.48238700       1.50381000
C        3.37411200      -0.60588600       0.63049100
N        2.26975300      -0.13829400      -0.12721200
C        0.95755900      -0.65055500       0.09800500
C        0.76602500      -1.61486700       1.06833000
C       -0.47556900      -2.14754000       1.33111300
C       -1.57637400      -1.68948800       0.58352200
Cl      -3.16172200      -2.38523200       0.87002400
C       -1.42447300      -0.73480700      -0.38432400
S       -2.78598600      -0.12964600      -1.28587500
O       -3.45581100      -1.28547700      -2.00262600
O       -2.26362500       0.76302900      -2.38957000
N       -3.84720700       0.74690000      -0.32326400
C       -4.49481000       0.13676200       0.74993400
C       -5.98080500       0.13432500       0.73732800
O       -6.53357700       0.68347100      -0.40964900
C       -5.97892000       1.95150500      -0.56844000
C       -4.55901000       1.79703400      -0.99508000
C       -0.13511800      -0.22272900      -0.61483900
C        4.72904300      -0.11889500       0.44216400
C        5.77002100      -0.59616700       1.19459300
C        7.07125600      -0.13689300       1.02262900
C        7.29670200       0.81641900       0.07222900
C        6.28829100       1.31441500      -0.69422800
C        4.98673300       0.84253700      -0.50906400
32
Properties=species:S:1:pos:R:3 energy=0.2833448514167243 pbc="T T T"
C       -7.77890200      -3.17900500       1.41425100
C       -6.64018400      -2.26530800       1.06506100
C       -6.89243600      -0.99164100       0.65476700
C       -5.82817300      -0.17146800       0.33957800
C       -4.51972300      -0.59204100       0.42414200
C       -3.40802800       0.29204500       0.08588400
C       -2.09473500      -0.10783600       0.16342300
C       -1.06774500       0.72224100      -0.15345900
C        0.34716800       0.29944400      -0.07255900
O        0.56248700      -0.87518100       0.30648500
N        1.42785000       1.13161000      -0.39230100
C        2.78941300       0.74369600      -0.32070800
C        3.81860500       1.59490100      -0.64441500
C        5.13922700       1.21282300      -0.57305500
C        5.46530200      -0.07085200      -0.16278900
N        6.81092400      -0.50900500      -0.07395700
C        7.87063200      -0.08287400      -0.77421400
C        8.99448700      -0.79830600      -0.35095700
C        8.53924500      -1.65662200       0.62427900
N        7.21851600      -1.44477500       0.75500400
C        4.43569400      -0.92731800       0.16267300
C        3.10605800      -0.53107400       0.08701000
C       -1.35263800       2.00954700      -0.56688900
C       -0.33025100       2.87420300      -0.89500500
C       -0.64366900       4.15061400      -1.30365100
C       -1.95797200       4.55558000      -1.38283100
C       -2.98991600       3.70823800      -1.06003800
C       -2.65972300       2.42493900      -0.64981400
N       -3.62518600       1.54879100      -0.32026500
C       -4.29577500      -1.87991500       0.84030600
C       -5.34191200      -2.71624500       1.16007900
C       -5.09863800      -4.12073000       1.61396500
30
Properties=species:S:1:pos:R:3 energy=0.2847270214236351 pbc="T T T"
N        6.31137100       1.20790500      -1.79149400
C        5.85754200       0.91899400      -0.76521000
C        5.29773100       0.56018900       0.49878900
C        3.99310200      -0.14245500       0.39743900
C        3.82333900      -1.39855000       0.92819200
C        2.61669400      -2.01549900       0.85543700
C        1.49612600      -1.45196000       0.26425100
N        0.25515300      -2.08064400       0.17928900
C       -0.98516000      -1.45166900      -0.11545500
O       -0.97063500      -0.21979600      -0.31323900
C       -2.22900300      -2.20330400      -0.18317000
C       -2.22717100      -3.57551400      -0.02407800
C       -3.36176800      -4.33489800      -0.09319800
C       -4.60377600      -3.73955100      -0.33370500
N       -4.57360500      -2.39885700      -0.48355400
C       -3.46447000      -1.64683800      -0.41535200
N       -3.52357600      -0.23219500      -0.54687900
C       -4.82798100       0.36488300      -0.78746000
C       -4.80707200       1.82481900      -0.68997200
C       -5.03346700       2.37018900       0.58006600
C       -5.03576500       3.70670200       0.78703000
N       -4.81816800       4.56262100      -0.23481900
C       -4.59377800       4.08756200      -1.48334100
C       -4.59101700       2.72102400      -1.69712600
C        1.67226000      -0.19274100      -0.26709700
C        2.88563600       0.44643600      -0.20494000
C        6.29580900      -0.27858600       1.27462300
C        7.36574800       0.75641800       1.58735200
C        6.59336100       2.03348800       1.86921500
C        5.18254100       1.80182800       1.36414000
33
Properties=species:S:1:pos:R:3 energy=0.2857636489288182 pbc="T T T"
C        9.92925700       1.46438200      -1.47674200
C        8.55804300       1.21529900      -0.86342300
C        8.76857700       1.26628700       0.64784700
O        8.08116500      -0.08086100      -1.25286200
C        6.86203300      -0.54946800      -0.83086700
C        6.44072400      -1.79059000      -1.22313100
C        5.21240800      -2.26497600      -0.79907200
C        4.37796900      -1.50719400       0.02751000
C        3.07428600      -1.98821100       0.49070600
N        2.01542300      -1.63064900      -0.41742500
C        1.46416800      -0.33452300      -0.51486900
O        1.88335700       0.59191500       0.20557500
C        0.38131500      -0.08708800      -1.48332600
C       -0.11575600       1.32332600      -1.47195000
C       -0.87811600       1.68006300      -0.23190700
N       -1.80329500       0.61588800       0.06134500
C       -3.19178600       0.81612400       0.22849800
O       -3.66331200       1.99910900       0.11574500
N       -4.06668000      -0.25288200       0.51556200
C       -3.50916900      -1.60161000       0.64079600
C       -4.23479600      -2.37172300       1.71917700
O       -5.63903000      -2.24621600       1.60158800
C       -6.25770800      -1.06200700       1.22944000
C       -7.60658900      -0.82005100       1.36843600
C       -8.17592200       0.37681800       0.98240000
C       -7.35105500       1.34254000       0.44514700
Cl      -8.04102200       2.89266100      -0.06299000
C       -5.99064200       1.13999800       0.28818300
C       -5.45277400      -0.07204600       0.68582700
C       -1.27406700      -0.71961600       0.18946100
C       -0.72007000      -1.09097000      -1.19014300
C        4.84498200      -0.26190700       0.39714300
C        6.07808200       0.22807500      -0.02167700
29
Properties=species:S:1:pos:R:3 energy=0.286109191430546 pbc="T T T"
C        5.01064900      -4.00825600       0.58777100
O        4.04963500      -3.67343700      -0.39091900
C        2.78017500      -3.94488200       0.14845800
C        2.61547300      -3.09107500       1.39602300
N        2.72291400      -1.66620400       1.04529600
C        3.84418100      -0.92467700       1.02014100
C        3.56081800       0.36788400       0.64572900
C        2.21614500       0.43887500       0.42883500
C        1.38223800       1.46337400       0.04206500
C        1.86344900       2.80935300      -0.23314500
C        3.16637000       3.11124700      -0.11834900
C        3.72542900       4.44134000      -0.37797300
O        2.77959600       5.40462900      -0.70679300
C        1.57159400       5.19432800      -0.05344700
C        0.97508400       3.91222800      -0.64809200
N        0.06942300       1.22065200      -0.08941200
C       -0.48398000       0.01700000       0.13852200
C       -1.93047900      -0.19967300      -0.01941600
C       -2.76980900       0.82168600      -0.40618600
C       -4.12517600       0.60947000      -0.55181500
C       -4.70740200      -0.62600000      -0.31996100
C       -3.88007600      -1.65507300       0.06701900
C       -2.50623900      -1.42776200       0.21149300
C       -4.72982100      -2.86138500       0.25183400
N       -6.06771800      -2.43181200      -0.05627900
C       -6.09678800      -1.05667900      -0.41438500
O       -7.12378000      -0.40376000      -0.73407900
C        0.36368400      -0.99853700       0.52502000
C        1.72441000      -0.84285500       0.68596700
27
Properties=species:S:1:pos:R:3 energy=0.2871458189357291 pbc="T T T"
C       -4.43985800      -2.78928700       0.21316000
C       -3.20724300      -2.97725800      -0.58785600
C       -2.73370800      -1.84602800      -1.39514300
N       -2.40605100      -0.63177900      -0.64532300
C       -3.42550700       0.16388400      -0.09962900
C       -4.87187800      -0.16795900      -0.37236200
C       -5.82287700       0.76940900       0.28376100
C       -5.69220200       2.20052100      -0.12051200
C       -5.86382600       0.57300400       1.76677200
N       -3.26895900       1.22874300       0.61491100
S       -1.71461800       1.80352300       0.98477700
O       -1.43590500       1.80521500       2.47784800
O       -1.47479900       3.18829300       0.44889800
C       -0.57946000       0.71732800       0.23402800
C        0.77775300       0.93381400       0.35892500
C        1.72496200       0.11204800      -0.20583100
N        3.13850100       0.36482500      -0.05780600
C        4.09452100      -0.51220900      -0.65468400
O        3.65559300      -1.48952500      -1.29839400