22
Properties=species:S:1:pos:R:3 energy=-0.13600260428099276 pbc="T T T"
C       -7.74666900      -1.34057500      -0.24957500
N       -6.55073800      -0.52808500      -0.10664800
C       -5.29886100      -1.23160700       0.01957900
O       -5.28478700      -2.49687400      -0.00074800
C       -4.06124300      -0.49721600       0.16955900
C       -3.59002800       0.35390200      -0.92026900
C       -2.16308300       0.09158000      -1.36610100
N       -1.38651900      -0.22486900      -0.21454600
C       -0.21588000       0.52820500       0.08284500
N        1.05452700       0.21227700      -0.10158800
C        2.00085700       1.04235400       0.23345600
C        3.43412200       0.69521300       0.05337000
C        4.37197300       1.60749400       0.41694000
C        5.71520500       1.29926600       0.27638000
C        6.13023400       0.07447800      -0.23008900
Br       7.99492200      -0.25976800      -0.38420200
C        5.17481700      -0.84295100      -0.59611900
C        3.81868000      -0.52547900      -0.45135100
C        1.60944100       2.24053300       0.77856400
S       -0.08571800       2.10812300       0.77921400
C       -1.76879900      -1.29518700       0.65093700
C       -3.15245400      -1.01081600       1.18805000
21
Properties=species:S:1:pos:R:3 energy=-0.17187185356622298 pbc="T T T"
N       -5.60695900      -2.12637600      -0.40759900
C       -5.13938200      -1.02101100       0.34806700
O       -5.45845400      -0.84156000       1.54706500
C       -4.24847000      -0.05113400      -0.30639000
C       -3.77513900       1.07395900       0.51493800
C       -2.40124000       0.90340500       1.14064700
N       -1.59100400       0.20684600       0.19794100
C       -0.36858200       0.74563400      -0.24735200
N        0.83801800       0.25182300      -0.10104100
C        1.87138200       0.87279700      -0.56670900
C        3.25633900       0.34577200      -0.43898800
C        4.32352200       1.04915100      -0.94535700
C        5.61657800       0.58378900      -0.85066800
C        5.79432900      -0.63164500      -0.21738700
C        4.74445100      -1.34798000       0.29379200
C        3.47095500      -0.86346000       0.18565700
N        2.36187000      -1.57741200       0.70142800
C        1.64038700       2.06741700      -1.21669200
S       -0.05892400       2.20058400      -1.10330300
C       -2.01809300      -1.06286900      -0.30657700
C       -3.25158500      -0.77773100      -1.14107900
20
Properties=species:S:1:pos:R:3 energy=-0.1938598790061888 pbc="T T T"
N       -5.41571300       1.98936000       0.22422900
C       -5.20405400       0.83583300       0.30528100
C       -4.92587700      -0.59740500       0.41845300
C       -4.52517900      -1.11422400      -0.92334600
C       -3.14836300      -1.75454800      -0.92584100
N       -2.18826700      -0.99942100      -0.19655200
C       -0.81314000      -1.01883200      -0.60414000
N        0.22322200      -0.41295400      -0.09294100
C        1.42292600      -0.55766300      -0.61705000
C        2.66601900       0.09599000      -0.10018600
C        2.65156900       0.92583400       0.99849700
C        3.80409500       1.52563400       1.46954200
C        4.99545100       1.30177600       0.84328400
Br       6.63986800       2.08350200       1.41769500
C        5.02439900       0.47362900      -0.25719200
C        3.84633600      -0.12541300      -0.72014200
C        1.49710500      -1.37685700      -1.71808700
S       -0.11294000      -1.87731100      -1.93088200
C       -2.57220300      -0.22419000       0.93260400
C       -3.86525600      -0.82899400       1.47677200
22
Properties=species:S:1:pos:R:3 energy=-0.6354130283196149 pbc="T T T"
N        7.63780800       1.89633600       0.03169000
C        6.59974900       1.35144100       0.00246700
C        5.33085100       0.70270500      -0.03015600
C        4.19225400       1.47523500       0.01571500
C        2.93240600       0.91736300      -0.01176000
C        2.76932700      -0.44681400      -0.08689700
C        1.41967700      -1.08473200      -0.11819500
C        1.27502400      -2.44934600      -0.19253700
S       -0.41502400      -2.63881700      -0.19759600
C       -0.84788700      -0.97506600      -0.10505600
N       -2.14997400      -0.39243800      -0.06854000
C       -2.80499000      -0.03905700      -1.28953500
C       -4.28199000      -0.24146800      -1.27226000
C       -4.92945500       0.07584500       0.04753500
C       -6.09780100       0.95308200      -0.22700400
N       -7.12978600       0.44553100      -1.06330900
O       -6.15516100       2.09193200       0.26688300
C       -3.95922500       0.78139200       0.93446900
C       -2.78313600      -0.16933900       1.19456700
N        0.33001800      -0.37677500      -0.07597600
C        3.90156700      -1.22569400      -0.13313000
C        5.16574800      -0.65131600      -0.10473700
22
Properties=species:S:1:pos:R:3 energy=-0.7169245245069018 pbc="T T T"
C       -5.61592600      -1.63537200      -1.18611200
O       -4.34052800      -1.10710100      -0.90850700
C       -4.19045800       0.12028300      -0.23449100
C       -5.30202300       0.83788300       0.17196600
C       -5.16543900       2.03986200       0.83214300
C       -3.87783700       2.49879900       1.07145200
C       -2.77792700       1.77642200       0.66248700
C       -2.91245900       0.56522100      -0.00278800
C       -1.71979600      -0.21021300      -0.44196000
C       -1.86773900      -1.40519400      -1.09818700
S       -0.24790000      -1.86687000      -1.36911500
C        0.50987300      -0.52682500      -0.63935800
N        1.91999700      -0.23010200      -0.49064800
C        2.29150700       0.98520900       0.17447300
C        3.52742100       0.78478800       1.05473300
C        4.56823500       0.03949300       0.24279500
C        5.87140800       0.01202000       0.91553100
N        6.08881600      -0.56480500       2.19255800
O        6.86179900       0.52911100       0.33176600
C        4.02637100      -1.34764300      -0.03445600
C        2.86243100      -1.17119500      -1.01842300
N       -0.50982600       0.20517200      -0.22586100
24
Properties=species:S:1:pos:R:3 energy=-0.7979703300665841 pbc="T T T"
C       -6.80841000      -0.86886500      -0.55785500
C       -6.00097800      -0.86592900       0.71060600
C       -6.31182600       0.42479600       1.52137200
C       -6.17368500      -2.09234800       1.54616400
C       -4.55189400      -0.78473700       0.30766300
C       -4.05755000      -1.61645700      -0.65656400
C       -2.71412000      -1.48988200      -0.98720600
C       -1.90763700      -0.55610900      -0.37180800
C       -0.47405400      -0.43201800      -0.74654600
C        0.07621600      -1.18727200      -1.78535200
S        1.69526500      -0.63663100      -1.78020600
C        1.58382400       0.50247700      -0.48655600
N        2.64761700       1.28970100       0.01051100
C        3.27383000       2.26705000      -0.82657200
C        4.73010200       1.84738800      -1.01448000
C        5.40448400       1.53765600       0.29187000
C        5.79922700       0.08684700       0.25977300
N        6.52850500      -0.49817200       1.30883100
O        5.45702700      -0.59122300      -0.73669400
C        4.52857700       1.69021300       1.50472400
C        3.11744200       1.14228600       1.35747200
N        0.32374700       0.38139500      -0.14819600
C       -2.41063200       0.27444200       0.59096100
C       -3.75507700       0.17539400       0.95127600
23
Properties=species:S:1:pos:R:3 energy=-1.1624599634915032 pbc="T T T"
C       -3.48622600      -0.13085600       2.45779700
N       -2.87432300      -0.33937800       1.11010500
C       -1.86326600      -1.33066700       1.08308500
C       -3.44175600       0.43137100       0.08519300
C       -4.82509600       0.72524500       0.17463500
C       -5.52112300       1.39877000      -0.78154100
C       -4.84110900       1.81473800      -1.89297900
C       -3.50573500       1.56471900      -2.04111500
C       -2.81002100       0.86422500      -1.02842100
C       -1.35296100       0.64207900      -1.21934500
C       -0.80337100       0.91177300      -2.48261300
S        0.83519600       0.50627800      -2.26814000
C        0.75314800       0.02933200      -0.63633400
N        1.76188100      -0.46767100       0.27510000
C        2.59262200       0.51910500       0.91860700
C        3.57996600      -0.19098600       1.79854600
C        4.24552100      -1.29264100       1.05387900
C        5.26521000      -0.75030400       0.14112200
N        6.37902600      -0.00138900       0.59448700
O        5.17965400      -0.94021800      -1.11397400
C        3.34457600      -2.28311400       0.40496600
C        1.89859000      -1.88412500       0.51164600
N       -0.51040200       0.20371300      -0.34777100
23
Properties=species:S:1:pos:R:3 energy=-1.2441615048326826 pbc="T T T"
C        7.19388900       0.90042000       1.04331800
C        7.19973000      -0.54165700       0.59372300
O        6.02188400      -1.21688400       0.92953700
C        4.76448300      -0.79842800       0.45713400
C        4.63959700       0.30181900      -0.36188700
C        3.40128300       0.70682000      -0.82194300
C        2.24585100       0.03956200      -0.48897700
C        0.92610700       0.49822800      -0.99899300
C        0.82385200       1.59923700      -1.81548200
S       -0.85455100       1.68031000      -2.09783400
C       -1.32161100       0.32958600      -1.17496400
N       -2.63601400      -0.22828100      -0.94296000
C       -2.76099000      -1.40010400      -0.10513200
C       -4.14435800      -1.42886100       0.50582200
C       -4.52336300       0.02071400       0.83342000
C       -5.72499800      -0.06899800       1.71388900
N       -5.57144200      -0.77019000       2.94172300
O       -6.82600400       0.46301000       1.36544500
C       -4.86079400       0.68517700      -0.48650100
C       -3.80630400       0.35191400      -1.52162200
N       -0.18528900      -0.11894200      -0.69675100
C        2.38289200      -1.05874500       0.33024300
C        3.61615000      -1.47630600       0.79879100
25
Properties=species:S:1:pos:R:3 energy=-1.4542018311484652 pbc="T T T"
N       -7.48804900       1.78695900      -0.97105000
C       -6.40857800       0.97203700      -1.45982900
O       -6.64477400      -0.24434800      -1.63923500
C       -5.12656800       1.63814000      -1.70484000
C       -4.58228100       2.26071700      -0.45598100
C       -3.64346300       1.38213100       0.30594900
N       -3.19803200       0.22777800      -0.38213100
C       -2.07952000      -0.48977500       0.19487800
N       -0.79547300      -0.30266200      -0.03619400
C        0.08610000      -1.04765600       0.57691100
C        1.55554300      -0.88882300       0.36150500
C        2.45181500      -1.69136600       1.02422100
C        3.81416000      -1.56282500       0.84108500
C        4.32314700      -0.61502600      -0.02171000
O        5.69851200      -0.50570100      -0.18855100
C        6.50556200       0.32306100       0.58902300
F        7.81237300       0.17764400       0.14495500
F        6.37385300      -0.06116400       1.91624300
F        6.19314500       1.66293000       0.45357900
C        3.43243800       0.19531400      -0.69157400
C        2.07441800       0.05346200      -0.49693600
C       -0.40690400      -1.99708800       1.44102100
S       -2.08836500      -1.76558500       1.32258600
C       -3.71843300      -0.33741100      -1.60100300
C       -4.14062700       0.82925700      -2.47478900
25
Properties=species:S:1:pos:R:3 energy=-1.519924485047253 pbc="T T T"
C        5.63310100       2.31343100      -1.91814900
C        5.47592100       2.04750500      -0.44594700
C        6.05775900       3.18799600       0.34044800
C        6.14435600       0.75420800      -0.03279200
O        5.60512000      -0.33908500      -0.70779000
C        4.24996900      -0.69654700      -0.61881300
C        3.75558800      -1.78073400      -1.29881500
C        2.42394800      -2.16132600      -1.23328200
C        1.56865700      -1.43732900      -0.46776600
C        0.12929400      -1.76412100      -0.33372600
C       -0.37694800      -2.84992900      -1.01188800
S       -2.02212800      -2.81751200      -0.55541400
C       -1.97111500      -1.45039400       0.45251600
N       -2.98809700      -0.79784300       1.20722800
C       -2.71297000       0.36889800       2.00659300
C       -3.44940700       1.54022500       1.37695900
C       -4.71160300       1.11342400       0.69932100
C       -5.70519900       2.17791600       0.55657700
N       -5.35725200       3.33824500      -0.18353000
O       -6.84270600       2.11710000       1.05254700
C       -5.28529900      -0.15897700       1.27575200
C       -4.33540700      -1.31423300       1.17543400
N       -0.70744000      -1.08395400       0.39425100
C        2.03911500      -0.34649400       0.22348300
C        3.38274300       0.03953200       0.15885800
21
Properties=species:S:1:pos:R:3 energy=-1.5422896345068333 pbc="T T T"
N       -6.40249100      -0.60683500      -0.01225800
C       -5.81515400       0.34437800       0.86442500
O       -6.58719600       1.03127700       1.57612500
C       -4.36748400       0.56282800       0.97979700
C       -3.79088900       0.97670800      -0.33017200
C       -2.35776000       1.41184400      -0.12328700
N       -1.66555400       0.36498700       0.56910100
C       -0.24392900       0.53475700       0.76331900
N        0.73220000       0.13355800      -0.02312100
C        1.97259500       0.37275300       0.30687700
C        3.12316600      -0.05768800      -0.54003000
C        4.41518300       0.21302000      -0.16494200
C        5.50533700      -0.16835200      -0.91678700
C        5.31498600      -0.84735200      -2.09202700
F        6.36435600      -1.24835900      -2.87450900
C        4.03187800      -1.12801000      -2.48522600
C        2.94599200      -0.74079900      -1.72328300
C        2.17559700       1.04738100       1.48869800
S        0.58625100       1.29266600       2.04518700
C       -2.28058000      -0.81694300       1.07055500
C       -3.65650500      -0.60782600       1.62155700
24
Properties=species:S:1:pos:R:3 energy=-1.8219266112737826 pbc="T T T"
N        4.31122200       1.50924800      -0.09387900
C        5.34248400       0.53143500      -0.25440100
O        6.49495700       0.93471700      -0.53560400
C        5.07333600      -0.91966000      -0.09515100
C        4.52717400      -1.20632900       1.29440600
C        3.11124600      -0.69906000       1.43083000
N        2.28683400      -0.95732500       0.27625200
C        0.87256100      -0.98980300       0.48879200
N       -0.00704400      -0.08963600       0.10603300
C       -1.27545900      -0.24319100       0.40829000
C       -2.28060900       0.75316100      -0.03964500
C       -1.85855300       1.76704800      -0.92195500
C       -2.75544100       2.71941600      -1.33726900
C       -4.06315200       2.69024600      -0.89777800
C       -4.46412900       1.71454900      -0.05113200
C       -3.56737900       0.72234400       0.39372000
C       -4.11814400      -0.29209500       1.32722200
F       -5.47508800       0.01477900       1.56004400
F       -4.08480400      -1.57210800       0.82534900
F       -3.43120400      -0.22336400       2.51452000
C       -1.59239000      -1.36238900       1.11878300
S       -0.08490600      -2.12805700       1.31529300
C        2.80640200      -1.15513200      -1.03291400
C        4.23208600      -1.51879600      -1.16566600
23
Properties=species:S:1:pos:R:3 energy=-1.8326678531051952 pbc="T T T"
N        7.37607900      -0.59867700       0.12549600
C        6.25330100       0.20276900       0.50470900
O        6.53176600       1.30930000       1.06508200
C        4.86122000      -0.20695900       0.27118300
C        4.56086400      -0.41706200      -1.20365600
C        3.06149200      -0.71326100      -1.34892900
N        2.41321000      -0.71719100      -0.06536300
C        1.25322600       0.06788800       0.18641200
N       -0.02826800      -0.21786400       0.02494800
C       -0.92816200       0.66491400       0.32519500
C       -2.38088400       0.40473500       0.16429200
C       -3.31562200       1.35830000       0.49131700
C       -4.67152200       1.15546200       0.35498500
C       -5.13726500      -0.03267800      -0.12236100
N       -6.53700400      -0.24426100      -0.26455000
O       -7.36224500       0.63499600       0.03804700
O       -7.00350900      -1.43528900      -0.74313200
C       -4.23107200      -1.01565600      -0.46184700
C       -2.86431600      -0.79318700      -0.31755300
C       -0.48380900       1.87532800       0.80565300
S        1.20958900       1.66037300       0.79244200
C        2.94833000      -1.53139500       0.98982000
C        4.47460200      -1.41058700       1.06430400
24
Properties=species:S:1:pos:R:3 energy=-1.863372019449175 pbc="T T T"
N        7.33934500       0.24357900       0.38486700
C        5.99332600       0.15549500       0.02368600
O        5.53905400       1.24926400      -0.51081100
C        5.06015300      -0.92386500       0.15303700
C        4.77534300      -1.50206800       1.49116700
C        3.20985900      -1.60567200       1.60931200
N        2.68586400      -1.45764900       0.28537300
C        1.62428000      -0.56165700      -0.02138200
N        0.34259700      -0.62563300       0.13653600
C       -0.44643000       0.31961000      -0.31724700
C       -1.90638400       0.37841400      -0.09786300
C       -2.69617300       0.85111400      -1.16359400
C       -4.06202500       0.98396600      -1.01144900
C       -4.72241900       0.65936200       0.17802700
C       -6.21431600       0.79506800       0.23199200
F       -6.76247700       0.71122200       1.46017900
F       -6.50588300       1.98327900      -0.39790600
F       -6.70014500      -0.25564000      -0.57600500
C       -3.94280000       0.19864700       1.21503700
C       -2.55575900       0.05812300       1.08376100
C        0.18897900       1.39002400      -0.96931600
S        1.81591500       0.95795500      -0.87458000
C        3.24970400      -2.24927700      -0.79461400
C        4.69039300      -1.75366300      -0.97664300
22
Properties=species:S:1:pos:R:3 energy=-2.0355007115718418 pbc="T T T"
C        5.45061400       1.81679900       3.74479200
O        5.67062500       1.19406800       2.50725700
C        4.62814500       0.76296800       1.65753600
C        4.92546100       0.16167500       0.45185600
C        3.91116200      -0.26217000      -0.38534300
C        2.58463100      -0.10885400      -0.06516700
C        1.51703000      -0.59146500      -0.97867000
C        1.83927700      -1.23874500      -2.14513800
S        0.29865400      -1.59818400      -2.79307000
C       -0.64860300      -0.91009200      -1.55364000
N       -2.09557100      -0.85282400      -1.43417200
C       -2.84131300      -1.77836300      -0.65467800
C       -4.22250400      -1.34946900      -0.36461600
C       -4.55142200       0.08511000      -0.46846600
C       -5.11231900       0.68786700       0.74137200
N       -6.30424600       0.15057000       1.31054500
O       -4.57123800       1.67650800       1.30177800
C       -3.56342800       0.97504100      -1.12796200
C       -2.78020100       0.20609800      -2.16628900
N        0.25287000      -0.44428600      -0.71424300
C        2.29994800       0.49262600       1.14080900
C        3.31242900       0.92512300       1.99551000
23
Properties=species:S:1:pos:R:3 energy=-2.1124617527079703 pbc="T T T"
C       -6.09425800       0.94424400      -3.01956500
C       -6.06617000       0.33442300      -1.66319800
O       -7.13067900       0.05216500      -1.06451500
C       -4.79687700       0.05626900      -1.01057600
C       -3.62155100       0.35062400      -1.63312400
C       -2.40778600       0.07649700      -0.99097200
C       -2.36589600      -0.48440500       0.25698300
C       -1.03525200      -0.73822100       0.85712400
C       -0.95210000      -1.29985100       2.10814100
S        0.73397700      -1.38713800       2.34759900
C        1.23006200      -0.71554300       0.86766700
N        2.54268600      -0.46457000       0.34489100
C        2.70447700       0.12035100      -0.95123700
C        3.93417400       0.95106700      -1.10973800
C        5.13546100       0.43426300      -0.39447100
C        5.72565100       1.46045300       0.50694300
N        6.87452300       1.14723900       1.26860800
O        5.20494200       2.60469500       0.59244900
C        4.90551400      -0.87074800       0.32381900
C        3.66945500      -0.83176300       1.19142000
N        0.09407400      -0.45474100       0.25720600
C       -3.53483100      -0.77683200       0.87542200
C       -4.74959400      -0.50847900       0.24607200
23
Properties=species:S:1:pos:R:3 energy=-2.195843361647021 pbc="T T T"
C       -6.98016100       0.79116900       1.12724800
N       -6.33527700      -0.06433800       0.12777500
C       -7.20674800      -0.67814400      -0.84621100
C       -4.91527800      -0.24542100       0.16840000
C       -4.05641400       0.61437900      -0.47819800
C       -2.67484100       0.44920700      -0.44593600
C       -2.11177500      -0.59777400       0.24530700
C       -0.62997500      -0.78344800       0.30443600
C       -0.07309000      -1.86349100       0.94961000
S        1.59630100      -1.60316100       0.72365000
C        1.49933400      -0.15186400      -0.16472800
N        2.56210800       0.68329300      -0.69801300
C        3.38465700       0.18884800      -1.75609500
C        4.68974300       0.91865100      -1.84566000
C        5.12174600       1.34550500      -0.48354400
C        5.32681900       0.15601400       0.40672800
N        6.27693400      -0.82125200       0.01923600
O        4.67882100       0.00964500       1.47916700
C        4.18906400       2.33989100       0.14858600
C        2.74912400       2.01032200      -0.14262300
N        0.20373600       0.05421300      -0.24334300
C       -2.95809800      -1.46153200       0.89416800
C       -4.33672900      -1.29071100       0.85716700
21
Properties=species:S:1:pos:R:3 energy=-2.2273917193819477 pbc="T T T"
N        5.61410700       1.25953300       0.67557200
C        4.54434600       1.95477400       0.04931100
O        4.67198000       3.14467400      -0.29611700
C        3.28082600       1.17897800      -0.16265100
C        3.67038400       0.00498100      -1.06703800
C        2.47305400      -0.91948300      -1.23131100
N        1.76914300      -1.05755600       0.02023900
C        0.40380700      -1.52202200      -0.01488100
N       -0.65240800      -0.74094300      -0.05278900
C       -1.85020500      -1.27364800      -0.08878700
C       -3.08816000      -0.44929600      -0.12725700
C       -4.32074100      -1.03257800      -0.20171200
C       -5.46673500      -0.26978900      -0.23611600
C       -5.42421200       1.10836500      -0.19699400
C       -4.18823000       1.70535500      -0.12176200
C       -3.04545300       0.93569800      -0.08771500
Cl      -1.44571800       1.68640700       0.01209000
C       -1.91461900      -2.64321200      -0.08412800
S       -0.26845900      -3.08361600      -0.02834100
C        2.43810100      -0.72896900       1.26033200
C        2.79919000       0.74234700       1.18275000
23
Properties=species:S:1:pos:R:3 energy=-2.266612432535229 pbc="T T T"
N        6.54263500      -0.04721300      -0.23114100
C        5.45043100      -0.18801900      -1.15462500
O        5.24312800       0.76927700      -1.94287200
C        4.59021700      -1.39458200      -1.19991000
C        3.54483500      -1.20712400      -2.23061400
C        2.30864900      -0.50562400      -1.76125400
N        2.15910200      -0.44522000      -0.34931400
C        0.83118400      -0.22965000       0.18065000
N       -0.29423000      -0.07103200      -0.47681700
C       -1.41303700       0.11568700       0.17046000
C       -2.70428700       0.22850500      -0.55448800
C       -2.74960200      -0.19568900      -1.89766700
C       -3.87617200      -0.17217100      -2.65094100
C       -5.02940100       0.28207000      -2.09311200
C       -5.04651900       0.70503800      -0.80652000
C       -3.86614200       0.67517600      -0.04084800
N       -3.97921000       1.16311600       1.28772500
O       -5.07404500       1.01289300       1.91888800
O       -2.97197800       1.78717800       1.93588800
C       -1.32229400       0.13208500       1.53814900
S        0.33790000      -0.11752300       1.80830500
C        3.21615000      -0.57953100       0.62579000
C        4.10268500      -1.71764600       0.16940200
20
Properties=species:S:1:pos:R:3 energy=-2.273301420686025 pbc="T T T"
N       -5.38740200       0.71203000      -0.90998200
C       -4.57345700       0.31697800       0.17481900
O       -4.14974200       1.19185200       0.97878600
C       -4.20099700      -1.10534000       0.39628400
C       -3.33779800      -1.24662800       1.60863500
C       -2.04129400      -0.48359500       1.44191100
N       -1.50547500      -0.71999800       0.13490500
C       -0.39020100       0.08707100      -0.27538700
N        0.88866900      -0.18794300      -0.10698900
C        1.79273900       0.64575500      -0.53506300
C        3.23557600       0.37593300      -0.36801200
C        3.69085700      -0.78024800       0.25286100
C        5.03942500      -1.00386200       0.39370800
C        5.92756700      -0.07681200      -0.08351200
C        5.48645500       1.06412100      -0.69603400
C        4.13953800       1.27821100      -0.83180600
C        1.34119300       1.78658300      -1.14984800
S       -0.35908700       1.58693800      -1.07290300
C       -2.05367600      -1.72894700      -0.75115600
C       -3.54289000      -1.71210000      -0.82897000
22
Properties=species:S:1:pos:R:3 energy=-2.3144030963715774 pbc="T T T"
N       -4.76404300      -0.93135900      -2.36194200
C       -4.52838800      -0.54302600      -1.30390900
C       -4.24729600      -0.07732400       0.02896000
C       -5.36213300       0.22455100       0.81965100
C       -5.16921100       0.67945600       2.12101400
C       -3.88729200       0.81711800       2.58712900
C       -2.78751400       0.51291600       1.78833300
C       -2.97237800       0.06347400       0.50327900
C       -1.82144500      -0.25359000      -0.34809900
C       -1.98458500      -0.72177100      -1.62804900
S       -0.37507800      -0.91804100      -2.15461500
C        0.41482700      -0.39951100      -0.73207500
N        1.83131800      -0.29215700      -0.45150300
C        2.47164200      -1.48144400       0.05140500
C        3.97871300      -1.41486300      -0.11454100
C        4.40935400      -0.06832300       0.45417400
C        5.88172300       0.01887600       0.60425500
N        6.73866300      -0.09697100      -0.51884300
O        6.37535600       0.19790400       1.74132600
C        3.92571100       1.02635700      -0.46634400
C        2.46065700       0.96175400      -0.68735300
N       -0.58860200      -0.10436400       0.06774600
18
Properties=species:S:1:pos:R:3 energy=-2.429131362033003 pbc="T T T"
Br       6.44405600       0.05566900       1.47249600
C        4.66284300      -0.00434400       0.80136700
C        4.47107000      -0.27804100      -0.52371600
C        3.17780100      -0.33390300      -1.06493600
C        2.09848000      -0.10779800      -0.23433900
C        0.71825200      -0.15875200      -0.77906900
C        0.49369900      -0.41444100      -2.11300700
S       -1.20521100      -0.36154400      -2.21206800
C       -1.53837700      -0.02367900      -0.57942100
N       -2.82596600       0.15587000       0.04210900
C       -3.53859500      -1.00578700       0.46203400
C       -4.77451400      -0.61430700       1.21472800
C       -5.58822600       0.41372600       0.48548800
C       -4.79399000       1.65277300       0.13775500
C       -3.31802700       1.47557500       0.21394700
N       -0.34157900       0.03325100      -0.03780600
C        2.28974200       0.16753400       1.09815800
C        3.56854200       0.21943000       1.61628000
21
Properties=species:S:1:pos:R:3 energy=-2.581323177374929 pbc="T T T"
N        6.68351600       0.85930100       1.39309400
C        5.57571100      -0.02813500       1.34984600
O        5.67506900      -1.25743900       1.10248000
C        4.22141300       0.51754300       1.60996800
C        3.17212200      -0.54458600       1.52652800
C        1.81683600       0.14374300       1.38246600
N        1.82427900       0.79540600       0.09271400
C        0.56906700       0.89258000      -0.63453200
N       -0.61599200       0.46041200      -0.28177900
C       -1.63556300       0.63853000      -1.06921200
C       -3.02724200       0.17959500      -0.75123900
C       -4.05526900       0.39337100      -1.61306400
C       -5.32688700      -0.03597100      -1.30255800
C       -5.60970400      -0.69177500      -0.12177300
Cl      -7.24173200      -1.23119400       0.25377500
C       -4.56908200      -0.91156000       0.75732400
C       -3.30181800      -0.47491500       0.43049100
C       -1.39244400       1.29033800      -2.25871300
S        0.28024800       1.60065100      -2.16211900
C        3.03498300       1.32592900      -0.44436200
C        3.92248900       1.71510500       0.74066400
24
Properties=species:S:1:pos:R:3 energy=-2.581323177374929 pbc="T T T"
C        5.56508400       1.62374900       3.53265400
C        5.51638500       0.67512600       2.36064600
C        6.46959500       1.10809000       1.28751900
O        4.22029800       0.66708000       1.85544300
C        3.83070700      -0.11361800       0.75731400
C        4.75131000      -0.92257800       0.12567300
C        4.37734900      -1.70482100      -0.96836200
C        3.05995400      -1.64400000      -1.39801800
C        2.12471400      -0.84865300      -0.78852600
C        0.72207200      -0.81844900      -1.28803200
C        0.35755300      -1.59035100      -2.36588800